
  ___ ___ ___ _ _ _  
 |   |   |_  | | | | 
 | | | | | . | | | | 
 |__ |  _|___|_____|  19.8.1
 |___|_|             

User:   fadjar@cn0015
Date:   Mon Dec  9 11:40:57 2019
Arch:   x86_64
Pid:    16588
Python: 3.7.3
gpaw:   /app/anaconda3/lib/python3.7/site-packages/gpaw
_gpaw:  /app/anaconda3/bin/gpaw-python
ase:    /app/anaconda3/lib/python3.7/site-packages/ase-3.18.0-py3.7.egg/ase (version 3.18.0)
numpy:  /app/anaconda3/lib/python3.7/site-packages/numpy (version 1.16.4)
scipy:  /app/anaconda3/lib/python3.7/site-packages/scipy (version 1.3.0)
libxc:  4.3.4
units:  Angstrom and eV
cores:  20

Input parameters:
  kpts: [4 4 1]
  mode: {ecut: 750.0,
         gammacentered: False,
         name: pw}
  xc: PBE

System changes: positions, numbers, cell, pbc, initial_charges, initial_magmoms 

Initialize ...

Al-setup:
  name: Aluminium
  id: 0292cae29f5d6237e50f6abdd43a7bdd
  Z: 13
  valence: 3
  core: 10
  charge: 0.0
  file: /app/gpaw-setups-0.9.20000/Al.PBE.gz
  compensation charges: gauss, rc=0.34, lmax=2
  cutoffs: 1.91(filt), 2.36(core),
  valence states:
                energy  radius
    3s(2.00)    -7.753   1.085
    3p(1.00)    -2.712   1.085
    *s          19.459   1.085
    *p          24.499   1.085
    *d           0.000   1.085

  Using partial waves for Al as LCAO basis

C-setup:
  name: Carbon
  id: 4aa54d4b901d75f77cc0ea3eec22967b
  Z: 6
  valence: 4
  core: 2
  charge: 0.0
  file: /app/gpaw-setups-0.9.20000/C.PBE.gz
  compensation charges: gauss, rc=0.20, lmax=2
  cutoffs: 1.14(filt), 1.14(core),
  valence states:
                energy  radius
    2s(2.00)   -13.751   0.635
    2p(2.00)    -5.284   0.635
    *s          13.461   0.635
    *p          21.927   0.635
    *d           0.000   0.635

  Using partial waves for C as LCAO basis

O-setup:
  name: Oxygen
  id: 32ecd46bf208036f09c70b0ec9a88b78
  Z: 8
  valence: 6
  core: 2
  charge: 0.0
  file: /app/gpaw-setups-0.9.20000/O.PBE.gz
  compensation charges: gauss, rc=0.21, lmax=2
  cutoffs: 1.17(filt), 0.83(core),
  valence states:
                energy  radius
    2s(2.00)   -23.961   0.688
    2p(4.00)    -9.029   0.598
    *s           3.251   0.688
    *p          18.182   0.598
    *d           0.000   0.619

  Using partial waves for O as LCAO basis

Reference energy: -22878.750211

Spin-paired calculation

Occupation numbers:
  Fermi-Dirac: width=0.1000 eV

Convergence criteria:
  Maximum total energy change: 0.0005 eV / electron
  Maximum integral of absolute density change: 0.0001 electrons
  Maximum integral of absolute eigenstate change: 4e-08 eV^2
  Maximum number of iterations: 333

Symmetries present (total): 6

  ( 1  0  0)  ( 1 -1  0)  ( 0  1  0)  ( 0 -1  0)  (-1  1  0)  (-1  0  0)
  ( 0  1  0)  ( 0 -1  0)  ( 1  0  0)  ( 1 -1  0)  (-1  0  0)  (-1  1  0)
  ( 0  0  1)  ( 0  0  1)  ( 0  0  1)  ( 0  0  1)  ( 0  0  1)  ( 0  0  1)
Note: your k-points are not as symmetric as your crystal!

16 k-points: 4 x 4 x 1 Monkhorst-Pack grid
6 k-points in the irreducible part of the Brillouin zone
       k-points in crystal coordinates                weights
   0:     0.12500000   -0.12500000    0.00000000          2/16
   1:     0.12500000    0.12500000    0.00000000          2/16
   2:     0.37500000   -0.37500000    0.00000000          2/16
   3:     0.37500000   -0.12500000    0.00000000          4/16
   4:     0.37500000    0.12500000    0.00000000          4/16
   5:     0.37500000    0.37500000    0.00000000          2/16

Wave functions: Plane wave expansion
  Cutoff energy: 750.000 eV
  Number of coefficients (min, max): 8082, 8207
  Pulay-stress correction: 0.000000 eV/Ang^3 (de/decut=0.000000)
  Using Numpy's FFT
  ScaLapack parameters: grid=1x1, blocksize=None
  Wavefunction extrapolation:
    Improved wavefunction reuse through dual PAW basis 

Eigensolver
   Davidson(niter=2, smin=None, normalize=True) 

Densities:
  Coarse grid: 20*20*160 grid
  Fine grid: 40*40*320 grid
  Total Charge: 0.000000 

Density mixing:
  Method: separate
  Backend: pulay
  Linear mixing parameter: 0.05
  Mixing with 5 old densities
  Damping of long wave oscillations: 50 

Hamiltonian:
  XC and Coulomb potentials evaluated on a 40*40*320 grid
  Using the PBE Exchange-Correlation functional
 

XC parameters: PBE with 2 nearest neighbor stencil

Memory estimate:
  Process memory now: 138.15 MiB
  Calculator: 15.62 MiB
    Density: 3.06 MiB
      Arrays: 1.27 MiB
      Localized functions: 1.30 MiB
      Mixer: 0.49 MiB
    Hamiltonian: 0.87 MiB
      Arrays: 0.83 MiB
      XC: 0.00 MiB
      Poisson: 0.00 MiB
      vbar: 0.04 MiB
    Wavefunctions: 11.70 MiB
      Arrays psit_nG: 6.01 MiB
      Eigensolver: 2.67 MiB
      Projections: 0.00 MiB
      Projectors: 0.45 MiB
      PW-descriptor: 2.56 MiB

Total number of cores used: 20
Parallelization over k-points: 2
Domain decomposition: 1 x 1 x 10

Number of atoms: 5
Number of atomic orbitals: 20
Number of bands in calculation: 16
Bands to converge: occupied states only
Number of valence electrons: 19

... initialized

Initializing position-dependent things.

Density initialized from atomic densities
Creating initial wave functions:
  16 bands from LCAO basis set

                    
                    
                    
                    
       O            
                    
       C            
                    
                    
       Al           
                    
        Al          
                    
                    
           Al       
                    
                    
                    
                    

Positions:
   0 Al     1.430477    0.825886   10.000000    ( 0.0000,  0.0000,  0.0000)
   1 Al     0.000000    1.651773   12.335959    ( 0.0000,  0.0000,  0.0000)
   2 Al     0.000000    0.000000   14.671918    ( 0.0000,  0.0000,  0.0000)
   3 C      0.000000    0.000000   16.471918    ( 0.0000,  0.0000,  0.0000)
   4 O      0.000000    0.000000   17.901918    ( 0.0000,  0.0000,  0.0000)

Unit cell:
           periodic     x           y           z      points  spacing
  1. axis:    yes    2.860954    0.000000    0.000000    20     0.1239
  2. axis:    yes    1.430477    2.477659    0.000000    20     0.1239
  3. axis:    no     0.000000    0.000000   24.671918   160     0.1542

  Lengths:   2.860954   2.860954  24.671918
  Angles:   90.000000  90.000000  60.000000

Effective grid spacing dv^(1/3) = 0.1398

                     log10-error:    total        iterations:
           time      wfs    density  energy       fermi  poisson
iter:   1  11:40:59  +0.85   +inf   -26.168132    2             
iter:   2  11:40:59  -1.05  -0.71   -25.172298    3             
iter:   3  11:41:00  -2.42  -0.86   -23.688366    4             
iter:   4  11:41:00  -2.95  -0.97   -23.635599    2             
iter:   5  11:41:00  -1.29  -1.00   -23.866032    32            
iter:   6  11:41:01  -1.54  -1.09   -23.473731    32            
iter:   7  11:41:01  -2.56  -1.40   -23.433753    3             
iter:   8  11:41:01  -3.24  -1.56   -23.397174    4             
iter:   9  11:41:02  -3.65  -1.74   -23.396340    4             
iter:  10  11:41:02  -3.50  -1.80   -23.382398    4             
iter:  11  11:41:03  -3.73  -1.95   -23.383317    4             
iter:  12  11:41:03  -4.29  -2.06   -23.381893    3             
iter:  13  11:41:03  -4.71  -2.31   -23.381490    2             
iter:  14  11:41:04  -3.88  -2.39   -23.380366    3             
iter:  15  11:41:04  -4.96  -2.73   -23.380324    3             
iter:  16  11:41:05  -5.34  -2.81   -23.380235    3             
iter:  17  11:41:05  -5.09  -3.01   -23.380276    2             
iter:  18  11:41:05  -5.73  -3.06   -23.380150    3             
iter:  19  11:41:06  -6.24  -3.34   -23.380157    2             
iter:  20  11:41:06  -6.47  -3.43   -23.380119    2             
iter:  21  11:41:07  -6.61  -3.46   -23.380128    2             
iter:  22  11:41:07  -7.01  -3.60   -23.380121    2             
iter:  23  11:41:07  -7.24  -3.67   -23.380131    2             
iter:  24  11:41:08  -7.56  -3.79   -23.380136    2             
iter:  25  11:41:08  -7.35  -3.86   -23.380138    2             
iter:  26  11:41:08  -8.03  -4.19   -23.380130    2             

Converged after 26 iterations.

Dipole moment: (-0.049527, -0.028594, -0.227295) |e|*Ang

Energy contributions relative to reference atoms: (reference = -22878.750211)

Kinetic:        +14.763914
Potential:      -13.453651
External:        +0.000000
XC:             -24.872019
Entropy (-ST):   -0.094964
Local:           +0.229108
--------------------------
Free energy:    -23.427612
Extrapolated:   -23.380130

Fermi level: -1.45623

Showing only first 2 kpts
 Kpt  Band  Eigenvalues  Occupancy
  0     7     -3.35247    0.25000
  0     8     -1.58190    0.19462
  0     9      0.29588    0.00000
  0    10      1.38660    0.00000

  1     7     -3.11011    0.25000
  1     8     -2.07247    0.24947
  1     9      1.19084    0.00000
  1    10      1.75260    0.00000


No gap
Timing:                              incl.     excl.
-----------------------------------------------------------
Hamiltonian:                         0.154     0.007   0.1% |
 Atomic:                             0.000     0.000   0.0% |
  XC Correction:                     0.000     0.000   0.0% |
 Calculate atomic Hamiltonians:      0.004     0.004   0.0% |
 Communicate:                        0.074     0.074   0.6% |
 Initialize Hamiltonian:             0.000     0.000   0.0% |
 Poisson:                            0.000     0.000   0.0% |
 XC 3D grid:                         0.067     0.067   0.6% |
LCAO initialization:                 0.605     0.138   1.2% |
 LCAO eigensolver:                   0.135     0.000   0.0% |
  Calculate projections:             0.000     0.000   0.0% |
  DenseAtomicCorrection:             0.000     0.000   0.0% |
  Distribute overlap matrix:         0.134     0.134   1.2% |
  Orbital Layouts:                   0.001     0.001   0.0% |
  Potential matrix:                  0.000     0.000   0.0% |
  Sum over cells:                    0.000     0.000   0.0% |
 LCAO to grid:                       0.268     0.268   2.3% ||
 Set positions (LCAO WFS):           0.064     0.021   0.2% |
  Basic WFS set positions:           0.001     0.001   0.0% |
  Basis functions set positions:     0.000     0.000   0.0% |
  P tci:                             0.000     0.000   0.0% |
  ST tci:                            0.013     0.013   0.1% |
  mktci:                             0.029     0.029   0.2% |
PWDescriptor:                        0.018     0.018   0.2% |
SCF-cycle:                           9.837     0.035   0.3% |
 Davidson:                           3.631     0.464   4.0% |-|
  Apply H:                           0.717     0.704   6.1% |-|
   HMM T:                            0.013     0.013   0.1% |
  Subspace diag:                     0.807     0.007   0.1% |
   calc_h_matrix:                    0.749     0.027   0.2% |
    Apply H:                         0.721     0.705   6.1% |-|
     HMM T:                          0.016     0.016   0.1% |
   diagonalize:                      0.027     0.027   0.2% |
   rotate_psi:                       0.025     0.025   0.2% |
  calc. matrices:                    1.539     0.177   1.5% ||
   Apply H:                          1.363     1.333  11.5% |----|
    HMM T:                           0.029     0.029   0.3% |
  diagonalize:                       0.067     0.067   0.6% |
  rotate_psi:                        0.036     0.036   0.3% |
 Density:                            2.500     0.001   0.0% |
  Atomic density matrices:           0.023     0.023   0.2% |
  Mix:                               1.204     1.204  10.4% |---|
  Multipole moments:                 0.003     0.003   0.0% |
  Pseudo density:                    1.269     0.570   4.9% |-|
   Symmetrize density:               0.699     0.699   6.0% |-|
 Hamiltonian:                        3.666     0.153   1.3% ||
  Atomic:                            0.007     0.007   0.1% |
   XC Correction:                    0.000     0.000   0.0% |
  Calculate atomic Hamiltonians:     0.186     0.186   1.6% ||
  Communicate:                       1.629     1.629  14.0% |-----|
  Poisson:                           0.008     0.008   0.1% |
  XC 3D grid:                        1.683     1.683  14.5% |-----|
 Orthonormalize:                     0.005     0.000   0.0% |
  calc_s_matrix:                     0.001     0.001   0.0% |
  inverse-cholesky:                  0.001     0.001   0.0% |
  projections:                       0.003     0.003   0.0% |
  rotate_psi_s:                      0.000     0.000   0.0% |
Set symmetry:                        0.004     0.004   0.0% |
Other:                               0.985     0.985   8.5% |--|
-----------------------------------------------------------
Total:                                        11.602 100.0%

Memory usage: 141.13 MiB
Date: Mon Dec  9 11:41:08 2019
