
  ___ ___ ___ _ _ _  
 |   |   |_  | | | | 
 | | | | | . | | | | 
 |__ |  _|___|_____|  19.8.1
 |___|_|             

User:   fadjar@cn0015
Date:   Mon Dec  9 11:41:48 2019
Arch:   x86_64
Pid:    16588
Python: 3.7.3
gpaw:   /app/anaconda3/lib/python3.7/site-packages/gpaw
_gpaw:  /app/anaconda3/bin/gpaw-python
ase:    /app/anaconda3/lib/python3.7/site-packages/ase-3.18.0-py3.7.egg/ase (version 3.18.0)
numpy:  /app/anaconda3/lib/python3.7/site-packages/numpy (version 1.16.4)
scipy:  /app/anaconda3/lib/python3.7/site-packages/scipy (version 1.3.0)
libxc:  4.3.4
units:  Angstrom and eV
cores:  20

Input parameters:
  kpts: [8 8 1]
  mode: {ecut: 750.0,
         gammacentered: False,
         name: pw}
  xc: PBE

System changes: positions, numbers, cell, pbc, initial_charges, initial_magmoms 

Initialize ...

Al-setup:
  name: Aluminium
  id: 0292cae29f5d6237e50f6abdd43a7bdd
  Z: 13
  valence: 3
  core: 10
  charge: 0.0
  file: /app/gpaw-setups-0.9.20000/Al.PBE.gz
  compensation charges: gauss, rc=0.34, lmax=2
  cutoffs: 1.91(filt), 2.36(core),
  valence states:
                energy  radius
    3s(2.00)    -7.753   1.085
    3p(1.00)    -2.712   1.085
    *s          19.459   1.085
    *p          24.499   1.085
    *d           0.000   1.085

  Using partial waves for Al as LCAO basis

C-setup:
  name: Carbon
  id: 4aa54d4b901d75f77cc0ea3eec22967b
  Z: 6
  valence: 4
  core: 2
  charge: 0.0
  file: /app/gpaw-setups-0.9.20000/C.PBE.gz
  compensation charges: gauss, rc=0.20, lmax=2
  cutoffs: 1.14(filt), 1.14(core),
  valence states:
                energy  radius
    2s(2.00)   -13.751   0.635
    2p(2.00)    -5.284   0.635
    *s          13.461   0.635
    *p          21.927   0.635
    *d           0.000   0.635

  Using partial waves for C as LCAO basis

O-setup:
  name: Oxygen
  id: 32ecd46bf208036f09c70b0ec9a88b78
  Z: 8
  valence: 6
  core: 2
  charge: 0.0
  file: /app/gpaw-setups-0.9.20000/O.PBE.gz
  compensation charges: gauss, rc=0.21, lmax=2
  cutoffs: 1.17(filt), 0.83(core),
  valence states:
                energy  radius
    2s(2.00)   -23.961   0.688
    2p(4.00)    -9.029   0.598
    *s           3.251   0.688
    *p          18.182   0.598
    *d           0.000   0.619

  Using partial waves for O as LCAO basis

Reference energy: -22878.750211

Spin-paired calculation

Occupation numbers:
  Fermi-Dirac: width=0.1000 eV

Convergence criteria:
  Maximum total energy change: 0.0005 eV / electron
  Maximum integral of absolute density change: 0.0001 electrons
  Maximum integral of absolute eigenstate change: 4e-08 eV^2
  Maximum number of iterations: 333

Symmetries present (total): 6

  ( 1  0  0)  ( 1 -1  0)  ( 0  1  0)  ( 0 -1  0)  (-1  1  0)  (-1  0  0)
  ( 0  1  0)  ( 0 -1  0)  ( 1  0  0)  ( 1 -1  0)  (-1  0  0)  (-1  1  0)
  ( 0  0  1)  ( 0  0  1)  ( 0  0  1)  ( 0  0  1)  ( 0  0  1)  ( 0  0  1)
Note: your k-points are not as symmetric as your crystal!

64 k-points: 8 x 8 x 1 Monkhorst-Pack grid
20 k-points in the irreducible part of the Brillouin zone
       k-points in crystal coordinates                weights
   0:     0.06250000   -0.06250000    0.00000000          2/64
   1:     0.06250000    0.06250000    0.00000000          2/64
   2:     0.18750000   -0.18750000    0.00000000          2/64
   3:     0.18750000   -0.06250000    0.00000000          4/64
   4:     0.18750000    0.06250000    0.00000000          4/64
   5:     0.18750000    0.18750000    0.00000000          2/64
   6:     0.31250000   -0.31250000    0.00000000          2/64
   7:     0.31250000   -0.18750000    0.00000000          4/64
   8:     0.31250000   -0.06250000    0.00000000          4/64
   9:     0.31250000    0.06250000    0.00000000          4/64
          ...
  19:     0.43750000    0.43750000    0.00000000          2/64

Wave functions: Plane wave expansion
  Cutoff energy: 750.000 eV
  Number of coefficients (min, max): 8091, 8217
  Pulay-stress correction: 0.000000 eV/Ang^3 (de/decut=0.000000)
  Using Numpy's FFT
  ScaLapack parameters: grid=1x1, blocksize=None
  Wavefunction extrapolation:
    Improved wavefunction reuse through dual PAW basis 

Eigensolver
   Davidson(niter=2, smin=None, normalize=True) 

Densities:
  Coarse grid: 20*20*160 grid
  Fine grid: 40*40*320 grid
  Total Charge: 0.000000 

Density mixing:
  Method: separate
  Backend: pulay
  Linear mixing parameter: 0.05
  Mixing with 5 old densities
  Damping of long wave oscillations: 50 

Hamiltonian:
  XC and Coulomb potentials evaluated on a 40*40*320 grid
  Using the PBE Exchange-Correlation functional
 

XC parameters: PBE with 2 nearest neighbor stencil

Memory estimate:
  Process memory now: 156.95 MiB
  Calculator: 48.00 MiB
    Density: 30.58 MiB
      Arrays: 12.70 MiB
      Localized functions: 13.00 MiB
      Mixer: 4.88 MiB
    Hamiltonian: 8.65 MiB
      Arrays: 8.30 MiB
      XC: 0.00 MiB
      Poisson: 0.00 MiB
      vbar: 0.35 MiB
    Wavefunctions: 8.76 MiB
      Arrays psit_nG: 2.01 MiB
      Eigensolver: 2.67 MiB
      Projections: 0.02 MiB
      Projectors: 1.50 MiB
      PW-descriptor: 2.57 MiB

Total number of cores used: 20
Parallelization over k-points: 20

Number of atoms: 5
Number of atomic orbitals: 20
Number of bands in calculation: 16
Bands to converge: occupied states only
Number of valence electrons: 19

... initialized

Initializing position-dependent things.

Density initialized from atomic densities
Creating initial wave functions:
  16 bands from LCAO basis set

                    
                    
                    
                    
       O            
                    
       C            
                    
                    
       Al           
                    
        Al          
                    
                    
           Al       
                    
                    
                    
                    

Positions:
   0 Al     1.430477    0.825886   10.000000    ( 0.0000,  0.0000,  0.0000)
   1 Al     0.000000    1.651773   12.335959    ( 0.0000,  0.0000,  0.0000)
   2 Al     0.000000    0.000000   14.671918    ( 0.0000,  0.0000,  0.0000)
   3 C      0.000000    0.000000   16.471918    ( 0.0000,  0.0000,  0.0000)
   4 O      0.000000    0.000000   17.901918    ( 0.0000,  0.0000,  0.0000)

Unit cell:
           periodic     x           y           z      points  spacing
  1. axis:    yes    2.860954    0.000000    0.000000    20     0.1239
  2. axis:    yes    1.430477    2.477659    0.000000    20     0.1239
  3. axis:    no     0.000000    0.000000   24.671918   160     0.1542

  Lengths:   2.860954   2.860954  24.671918
  Angles:   90.000000  90.000000  60.000000

Effective grid spacing dv^(1/3) = 0.1398

                     log10-error:    total        iterations:
           time      wfs    density  energy       fermi  poisson
iter:   1  11:41:52  +0.87   +inf   -26.109384    3             
iter:   2  11:41:53  -0.96  -0.69   -25.974506    3             
iter:   3  11:41:54  -2.37  -0.80   -23.669249    4             
iter:   4  11:41:56  -3.04  -0.97   -23.622943    3             
iter:   5  11:41:57  -1.24  -0.99   -23.937551    4             
iter:   6  11:41:58  -1.57  -1.05   -23.426315    28            
iter:   7  11:41:59  -2.33  -1.40   -23.412017    3             
iter:   8  11:42:00  -3.15  -1.53   -23.365910    4             
iter:   9  11:42:01  -4.11  -1.73   -23.361190    3             
iter:  10  11:42:03  -3.31  -1.79   -23.356554    4             
iter:  11  11:42:04  -3.99  -1.96   -23.352433    3             
iter:  12  11:42:05  -4.53  -2.15   -23.351432    3             
iter:  13  11:42:06  -4.45  -2.25   -23.350501    3             
iter:  14  11:42:07  -3.76  -2.35   -23.349485    3             
iter:  15  11:42:09  -4.51  -2.53   -23.349264    2             
iter:  16  11:42:10  -5.04  -2.65   -23.348819    3             
iter:  17  11:42:11  -5.61  -2.95   -23.348718    2             
iter:  18  11:42:12  -6.01  -3.14   -23.348661    3             
iter:  19  11:42:13  -6.71  -3.29   -23.348653    2             
iter:  20  11:42:15  -6.52  -3.38   -23.348640    2             
iter:  21  11:42:16  -7.37  -3.58   -23.348637    2             
iter:  22  11:42:17  -6.91  -3.61   -23.348637    2             
iter:  23  11:42:18  -7.54  -3.89   -23.348645    2             
iter:  24  11:42:19  -7.94  -4.14   -23.348646    2             

Converged after 24 iterations.

Dipole moment: (-0.047778, -0.027584, -0.228493) |e|*Ang

Energy contributions relative to reference atoms: (reference = -22878.750211)

Kinetic:        +14.433010
Potential:      -13.149447
External:        +0.000000
XC:             -24.830945
Entropy (-ST):   -0.068900
Local:           +0.233187
--------------------------
Free energy:    -23.383096
Extrapolated:   -23.348646

Fermi level: -1.36263

Showing only first 2 kpts
 Kpt  Band  Eigenvalues  Occupancy
  0     7     -3.06348    0.06250
  0     8     -2.18804    0.06248
  0     9      1.33479    0.00000
  0    10      1.70928    0.00000

  1     7     -3.00926    0.06250
  1     8     -2.33201    0.06250
  1     9      1.36638    0.00000
  1    10      1.89971    0.00000


No gap
Timing:                              incl.     excl.
-----------------------------------------------------------
Hamiltonian:                         0.693     0.008   0.0% |
 Atomic:                             0.066     0.066   0.2% |
  XC Correction:                     0.000     0.000   0.0% |
 Calculate atomic Hamiltonians:      0.064     0.064   0.2% |
 Communicate:                        0.000     0.000   0.0% |
 Initialize Hamiltonian:             0.001     0.001   0.0% |
 Poisson:                            0.002     0.002   0.0% |
 XC 3D grid:                         0.552     0.552   1.8% ||
LCAO initialization:                 0.925     0.138   0.4% |
 LCAO eigensolver:                   0.383     0.000   0.0% |
  Calculate projections:             0.000     0.000   0.0% |
  DenseAtomicCorrection:             0.000     0.000   0.0% |
  Distribute overlap matrix:         0.000     0.000   0.0% |
  Orbital Layouts:                   0.000     0.000   0.0% |
  Potential matrix:                  0.382     0.382   1.2% |
  Sum over cells:                    0.001     0.001   0.0% |
 LCAO to grid:                       0.280     0.280   0.9% |
 Set positions (LCAO WFS):           0.124     0.025   0.1% |
  Basic WFS set positions:           0.001     0.001   0.0% |
  Basis functions set positions:     0.000     0.000   0.0% |
  P tci:                             0.030     0.030   0.1% |
  ST tci:                            0.040     0.040   0.1% |
  mktci:                             0.028     0.028   0.1% |
PWDescriptor:                        0.011     0.011   0.0% |
SCF-cycle:                          27.786     0.199   0.6% |
 Davidson:                           6.595     1.317   4.2% |-|
  Apply H:                           1.154     1.111   3.6% ||
   HMM T:                            0.044     0.044   0.1% |
  Subspace diag:                     1.402     0.003   0.0% |
   calc_h_matrix:                    1.252     0.055   0.2% |
    Apply H:                         1.197     1.126   3.6% ||
     HMM T:                          0.071     0.071   0.2% |
   diagonalize:                      0.007     0.007   0.0% |
   rotate_psi:                       0.139     0.139   0.4% |
  calc. matrices:                    2.500     0.283   0.9% |
   Apply H:                          2.217     2.133   6.9% |--|
    HMM T:                           0.084     0.084   0.3% |
  diagonalize:                       0.024     0.024   0.1% |
  rotate_psi:                        0.198     0.198   0.6% |
 Density:                            4.961     0.001   0.0% |
  Atomic density matrices:           0.026     0.026   0.1% |
  Mix:                               3.587     3.587  11.5% |----|
  Multipole moments:                 0.004     0.004   0.0% |
  Pseudo density:                    1.343     0.713   2.3% ||
   Symmetrize density:               0.630     0.630   2.0% ||
 Hamiltonian:                       16.018     0.179   0.6% |
  Atomic:                            1.600     1.600   5.1% |-|
   XC Correction:                    0.000     0.000   0.0% |
  Calculate atomic Hamiltonians:     1.503     1.503   4.8% |-|
  Communicate:                       0.002     0.002   0.0% |
  Poisson:                           0.087     0.087   0.3% |
  XC 3D grid:                       12.647    12.647  40.6% |---------------|
 Orthonormalize:                     0.012     0.000   0.0% |
  calc_s_matrix:                     0.001     0.001   0.0% |
  inverse-cholesky:                  0.000     0.000   0.0% |
  projections:                       0.009     0.009   0.0% |
  rotate_psi_s:                      0.002     0.002   0.0% |
Set symmetry:                        0.006     0.006   0.0% |
Other:                               1.708     1.708   5.5% |-|
-----------------------------------------------------------
Total:                                        31.128 100.0%

Memory usage: 228.05 MiB
Date: Mon Dec  9 11:42:19 2019
