
  ___ ___ ___ _ _ _  
 |   |   |_  | | | | 
 | | | | | . | | | | 
 |__ |  _|___|_____|  19.8.1
 |___|_|             

User:   fadjar@cn0015
Date:   Mon Dec  9 11:42:19 2019
Arch:   x86_64
Pid:    16588
Python: 3.7.3
gpaw:   /app/anaconda3/lib/python3.7/site-packages/gpaw
_gpaw:  /app/anaconda3/bin/gpaw-python
ase:    /app/anaconda3/lib/python3.7/site-packages/ase-3.18.0-py3.7.egg/ase (version 3.18.0)
numpy:  /app/anaconda3/lib/python3.7/site-packages/numpy (version 1.16.4)
scipy:  /app/anaconda3/lib/python3.7/site-packages/scipy (version 1.3.0)
libxc:  4.3.4
units:  Angstrom and eV
cores:  20

Input parameters:
  kpts: [9 9 1]
  mode: {ecut: 750.0,
         gammacentered: False,
         name: pw}
  xc: PBE

System changes: positions, numbers, cell, pbc, initial_charges, initial_magmoms 

Initialize ...

Al-setup:
  name: Aluminium
  id: 0292cae29f5d6237e50f6abdd43a7bdd
  Z: 13
  valence: 3
  core: 10
  charge: 0.0
  file: /app/gpaw-setups-0.9.20000/Al.PBE.gz
  compensation charges: gauss, rc=0.34, lmax=2
  cutoffs: 1.91(filt), 2.36(core),
  valence states:
                energy  radius
    3s(2.00)    -7.753   1.085
    3p(1.00)    -2.712   1.085
    *s          19.459   1.085
    *p          24.499   1.085
    *d           0.000   1.085

  Using partial waves for Al as LCAO basis

C-setup:
  name: Carbon
  id: 4aa54d4b901d75f77cc0ea3eec22967b
  Z: 6
  valence: 4
  core: 2
  charge: 0.0
  file: /app/gpaw-setups-0.9.20000/C.PBE.gz
  compensation charges: gauss, rc=0.20, lmax=2
  cutoffs: 1.14(filt), 1.14(core),
  valence states:
                energy  radius
    2s(2.00)   -13.751   0.635
    2p(2.00)    -5.284   0.635
    *s          13.461   0.635
    *p          21.927   0.635
    *d           0.000   0.635

  Using partial waves for C as LCAO basis

O-setup:
  name: Oxygen
  id: 32ecd46bf208036f09c70b0ec9a88b78
  Z: 8
  valence: 6
  core: 2
  charge: 0.0
  file: /app/gpaw-setups-0.9.20000/O.PBE.gz
  compensation charges: gauss, rc=0.21, lmax=2
  cutoffs: 1.17(filt), 0.83(core),
  valence states:
                energy  radius
    2s(2.00)   -23.961   0.688
    2p(4.00)    -9.029   0.598
    *s           3.251   0.688
    *p          18.182   0.598
    *d           0.000   0.619

  Using partial waves for O as LCAO basis

Reference energy: -22878.750211

Spin-paired calculation

Occupation numbers:
  Fermi-Dirac: width=0.1000 eV

Convergence criteria:
  Maximum total energy change: 0.0005 eV / electron
  Maximum integral of absolute density change: 0.0001 electrons
  Maximum integral of absolute eigenstate change: 4e-08 eV^2
  Maximum number of iterations: 333

Symmetries present (total): 6

  ( 1  0  0)  ( 1 -1  0)  ( 0  1  0)  ( 0 -1  0)  (-1  1  0)  (-1  0  0)
  ( 0  1  0)  ( 0 -1  0)  ( 1  0  0)  ( 1 -1  0)  (-1  0  0)  (-1  1  0)
  ( 0  0  1)  ( 0  0  1)  ( 0  0  1)  ( 0  0  1)  ( 0  0  1)  ( 0  0  1)

81 k-points: 9 x 9 x 1 Monkhorst-Pack grid
12 k-points in the irreducible part of the Brillouin zone
       k-points in crystal coordinates                weights
   0:     0.00000000    0.00000000    0.00000000          1/81
   1:     0.11111111    0.11111111    0.00000000          6/81
   2:     0.22222222    0.11111111    0.00000000          6/81
   3:     0.22222222    0.22222222    0.00000000          6/81
   4:     0.33333333   -0.33333333    0.00000000          2/81
   5:     0.33333333    0.22222222    0.00000000         12/81
   6:     0.33333333    0.33333333    0.00000000          6/81
   7:     0.44444444   -0.22222222    0.00000000         12/81
   8:     0.44444444   -0.11111111    0.00000000          6/81
   9:     0.44444444    0.22222222    0.00000000          6/81
          ...
  11:     0.44444444    0.44444444    0.00000000          6/81

Wave functions: Plane wave expansion
  Cutoff energy: 750.000 eV
  Number of coefficients (min, max): 8106, 8213
  Pulay-stress correction: 0.000000 eV/Ang^3 (de/decut=0.000000)
  Using Numpy's FFT
  ScaLapack parameters: grid=1x1, blocksize=None
  Wavefunction extrapolation:
    Improved wavefunction reuse through dual PAW basis 

Eigensolver
   Davidson(niter=2, smin=None, normalize=True) 

Densities:
  Coarse grid: 20*20*160 grid
  Fine grid: 40*40*320 grid
  Total Charge: 0.000000 

Density mixing:
  Method: separate
  Backend: pulay
  Linear mixing parameter: 0.05
  Mixing with 5 old densities
  Damping of long wave oscillations: 50 

Hamiltonian:
  XC and Coulomb potentials evaluated on a 40*40*320 grid
  Using the PBE Exchange-Correlation functional
 

XC parameters: PBE with 2 nearest neighbor stencil

Memory estimate:
  Process memory now: 228.05 MiB
  Calculator: 20.04 MiB
    Density: 6.12 MiB
      Arrays: 2.54 MiB
      Localized functions: 2.60 MiB
      Mixer: 0.98 MiB
    Hamiltonian: 1.73 MiB
      Arrays: 1.66 MiB
      XC: 0.00 MiB
      Poisson: 0.00 MiB
      vbar: 0.07 MiB
    Wavefunctions: 12.19 MiB
      Arrays psit_nG: 6.02 MiB
      Eigensolver: 2.67 MiB
      Projections: 0.01 MiB
      Projectors: 0.90 MiB
      PW-descriptor: 2.59 MiB

Total number of cores used: 20
Parallelization over k-points: 4
Domain decomposition: 1 x 1 x 5

Number of atoms: 5
Number of atomic orbitals: 20
Number of bands in calculation: 16
Bands to converge: occupied states only
Number of valence electrons: 19

... initialized

Initializing position-dependent things.

Density initialized from atomic densities
Creating initial wave functions:
  16 bands from LCAO basis set

                    
                    
                    
                    
       O            
                    
       C            
                    
                    
       Al           
                    
        Al          
                    
                    
           Al       
                    
                    
                    
                    

Positions:
   0 Al     1.430477    0.825886   10.000000    ( 0.0000,  0.0000,  0.0000)
   1 Al     0.000000    1.651773   12.335959    ( 0.0000,  0.0000,  0.0000)
   2 Al     0.000000    0.000000   14.671918    ( 0.0000,  0.0000,  0.0000)
   3 C      0.000000    0.000000   16.471918    ( 0.0000,  0.0000,  0.0000)
   4 O      0.000000    0.000000   17.901918    ( 0.0000,  0.0000,  0.0000)

Unit cell:
           periodic     x           y           z      points  spacing
  1. axis:    yes    2.860954    0.000000    0.000000    20     0.1239
  2. axis:    yes    1.430477    2.477659    0.000000    20     0.1239
  3. axis:    no     0.000000    0.000000   24.671918   160     0.1542

  Lengths:   2.860954   2.860954  24.671918
  Angles:   90.000000  90.000000  60.000000

Effective grid spacing dv^(1/3) = 0.1398

                     log10-error:    total        iterations:
           time      wfs    density  energy       fermi  poisson
iter:   1  11:42:22  +0.85   +inf   -26.203550    2             
iter:   2  11:42:22  -1.02  -0.69   -25.812732    3             
iter:   3  11:42:23  -2.41  -0.81   -23.635010    3             
iter:   4  11:42:23  -3.04  -0.97   -23.589453    3             
iter:   5  11:42:24  -1.27  -0.99   -23.876936    3             
iter:   6  11:42:25  -1.56  -1.06   -23.420764    32            
iter:   7  11:42:25  -2.39  -1.40   -23.392931    3             
iter:   8  11:42:26  -3.25  -1.54   -23.343438    4             
iter:   9  11:42:26  -3.28  -1.74   -23.338777    3             
iter:  10  11:42:27  -3.14  -1.83   -23.331818    4             
iter:  11  11:42:27  -3.56  -2.01   -23.327117    3             
iter:  12  11:42:28  -4.05  -2.20   -23.326723    2             
iter:  13  11:42:28  -4.15  -2.31   -23.325562    2             
iter:  14  11:42:29  -4.83  -2.45   -23.325709    2             
iter:  15  11:42:30  -4.62  -2.51   -23.325638    3             
iter:  16  11:42:30  -5.51  -2.92   -23.325635    2             
iter:  17  11:42:31  -5.80  -3.00   -23.325500    2             
iter:  18  11:42:31  -6.22  -3.14   -23.325505    2             
iter:  19  11:42:32  -6.70  -3.38   -23.325474    2             
iter:  20  11:42:32  -6.65  -3.48   -23.325496    2             
iter:  21  11:42:33  -7.02  -3.59   -23.325487    2             
iter:  22  11:42:33  -7.32  -3.71   -23.325496    2             
iter:  23  11:42:34  -7.97  -3.77   -23.325499    2             
iter:  24  11:42:35  -7.17  -3.81   -23.325495    2             
iter:  25  11:42:35  -7.85  -3.89   -23.325492    2             
iter:  26  11:42:36  -7.43  -3.93   -23.325502    2             
iter:  27  11:42:36  -8.15  -4.09   -23.325498    2             

Converged after 27 iterations.

Dipole moment: (-0.048582, -0.028049, -0.228637) |e|*Ang

Energy contributions relative to reference atoms: (reference = -22878.750211)

Kinetic:        +14.034070
Potential:      -12.756050
External:        +0.000000
XC:             -24.801442
Entropy (-ST):   -0.069964
Local:           +0.232905
--------------------------
Free energy:    -23.360480
Extrapolated:   -23.325498

Fermi level: -1.37432

Showing only first 2 kpts
 Kpt  Band  Eigenvalues  Occupancy
  0     7     -2.97361    0.02469
  0     8     -2.41967    0.02469
  0     9      1.30044    0.00000
  0    10      2.11132    0.00000

  1     7     -3.05162    0.14815
  1     8     -2.18877    0.14811
  1     9      1.31325    0.00000
  1    10      1.70469    0.00000


No gap
Timing:                              incl.     excl.
-----------------------------------------------------------
Hamiltonian:                         0.203     0.007   0.0% |
 Atomic:                             0.000     0.000   0.0% |
  XC Correction:                     0.000     0.000   0.0% |
 Calculate atomic Hamiltonians:      0.008     0.008   0.1% |
 Communicate:                        0.073     0.073   0.4% |
 Initialize Hamiltonian:             0.000     0.000   0.0% |
 Poisson:                            0.000     0.000   0.0% |
 XC 3D grid:                         0.113     0.113   0.7% |
LCAO initialization:                 0.829     0.138   0.8% |
 LCAO eigensolver:                   0.195     0.000   0.0% |
  Calculate projections:             0.000     0.000   0.0% |
  DenseAtomicCorrection:             0.000     0.000   0.0% |
  Distribute overlap matrix:         0.194     0.194   1.2% |
  Orbital Layouts:                   0.001     0.001   0.0% |
  Potential matrix:                  0.000     0.000   0.0% |
  Sum over cells:                    0.000     0.000   0.0% |
 LCAO to grid:                       0.399     0.399   2.4% ||
 Set positions (LCAO WFS):           0.097     0.053   0.3% |
  Basic WFS set positions:           0.001     0.001   0.0% |
  Basis functions set positions:     0.000     0.000   0.0% |
  P tci:                             0.000     0.000   0.0% |
  ST tci:                            0.013     0.013   0.1% |
  mktci:                             0.029     0.029   0.2% |
PWDescriptor:                        0.017     0.017   0.1% |
SCF-cycle:                          14.649     0.055   0.3% |
 Davidson:                           6.294     0.854   5.1% |-|
  Apply H:                           1.221     1.185   7.1% |--|
   HMM T:                            0.036     0.036   0.2% |
  Subspace diag:                     1.377     0.007   0.0% |
   calc_h_matrix:                    1.292     0.043   0.3% |
    Apply H:                         1.249     1.210   7.2% |--|
     HMM T:                          0.040     0.040   0.2% |
   diagonalize:                      0.032     0.032   0.2% |
   rotate_psi:                       0.046     0.046   0.3% |
  calc. matrices:                    2.698     0.261   1.6% ||
   Apply H:                          2.437     2.360  14.1% |-----|
    HMM T:                           0.077     0.077   0.5% |
  diagonalize:                       0.075     0.075   0.4% |
  rotate_psi:                        0.070     0.070   0.4% |
 Density:                            3.037     0.001   0.0% |
  Atomic density matrices:           0.028     0.028   0.2% |
  Mix:                               1.422     1.422   8.5% |--|
  Multipole moments:                 0.004     0.004   0.0% |
  Pseudo density:                    1.583     0.860   5.1% |-|
   Symmetrize density:               0.723     0.723   4.3% |-|
 Hamiltonian:                        5.256     0.171   1.0% |
  Atomic:                            0.006     0.006   0.0% |
   XC Correction:                    0.000     0.000   0.0% |
  Calculate atomic Hamiltonians:     0.349     0.349   2.1% ||
  Communicate:                       1.702     1.702  10.1% |---|
  Poisson:                           0.009     0.009   0.1% |
  XC 3D grid:                        3.019     3.019  18.0% |------|
 Orthonormalize:                     0.008     0.000   0.0% |
  calc_s_matrix:                     0.001     0.001   0.0% |
  inverse-cholesky:                  0.001     0.001   0.0% |
  projections:                       0.005     0.005   0.0% |
  rotate_psi_s:                      0.001     0.001   0.0% |
Set symmetry:                        0.006     0.006   0.0% |
Other:                               1.080     1.080   6.4% |--|
-----------------------------------------------------------
Total:                                        16.784 100.0%

Memory usage: 228.05 MiB
Date: Mon Dec  9 11:42:36 2019
