
  ___ ___ ___ _ _ _  
 |   |   |_  | | | | 
 | | | | | . | | | | 
 |__ |  _|___|_____|  19.8.1
 |___|_|             

User:   fadjar@cn0015
Date:   Mon Dec  9 11:42:36 2019
Arch:   x86_64
Pid:    16588
Python: 3.7.3
gpaw:   /app/anaconda3/lib/python3.7/site-packages/gpaw
_gpaw:  /app/anaconda3/bin/gpaw-python
ase:    /app/anaconda3/lib/python3.7/site-packages/ase-3.18.0-py3.7.egg/ase (version 3.18.0)
numpy:  /app/anaconda3/lib/python3.7/site-packages/numpy (version 1.16.4)
scipy:  /app/anaconda3/lib/python3.7/site-packages/scipy (version 1.3.0)
libxc:  4.3.4
units:  Angstrom and eV
cores:  20

Input parameters:
  kpts: [10 10  1]
  mode: {ecut: 750.0,
         gammacentered: False,
         name: pw}
  xc: PBE

System changes: positions, numbers, cell, pbc, initial_charges, initial_magmoms 

Initialize ...

Al-setup:
  name: Aluminium
  id: 0292cae29f5d6237e50f6abdd43a7bdd
  Z: 13
  valence: 3
  core: 10
  charge: 0.0
  file: /app/gpaw-setups-0.9.20000/Al.PBE.gz
  compensation charges: gauss, rc=0.34, lmax=2
  cutoffs: 1.91(filt), 2.36(core),
  valence states:
                energy  radius
    3s(2.00)    -7.753   1.085
    3p(1.00)    -2.712   1.085
    *s          19.459   1.085
    *p          24.499   1.085
    *d           0.000   1.085

  Using partial waves for Al as LCAO basis

C-setup:
  name: Carbon
  id: 4aa54d4b901d75f77cc0ea3eec22967b
  Z: 6
  valence: 4
  core: 2
  charge: 0.0
  file: /app/gpaw-setups-0.9.20000/C.PBE.gz
  compensation charges: gauss, rc=0.20, lmax=2
  cutoffs: 1.14(filt), 1.14(core),
  valence states:
                energy  radius
    2s(2.00)   -13.751   0.635
    2p(2.00)    -5.284   0.635
    *s          13.461   0.635
    *p          21.927   0.635
    *d           0.000   0.635

  Using partial waves for C as LCAO basis

O-setup:
  name: Oxygen
  id: 32ecd46bf208036f09c70b0ec9a88b78
  Z: 8
  valence: 6
  core: 2
  charge: 0.0
  file: /app/gpaw-setups-0.9.20000/O.PBE.gz
  compensation charges: gauss, rc=0.21, lmax=2
  cutoffs: 1.17(filt), 0.83(core),
  valence states:
                energy  radius
    2s(2.00)   -23.961   0.688
    2p(4.00)    -9.029   0.598
    *s           3.251   0.688
    *p          18.182   0.598
    *d           0.000   0.619

  Using partial waves for O as LCAO basis

Reference energy: -22878.750211

Spin-paired calculation

Occupation numbers:
  Fermi-Dirac: width=0.1000 eV

Convergence criteria:
  Maximum total energy change: 0.0005 eV / electron
  Maximum integral of absolute density change: 0.0001 electrons
  Maximum integral of absolute eigenstate change: 4e-08 eV^2
  Maximum number of iterations: 333

Symmetries present (total): 6

  ( 1  0  0)  ( 1 -1  0)  ( 0  1  0)  ( 0 -1  0)  (-1  1  0)  (-1  0  0)
  ( 0  1  0)  ( 0 -1  0)  ( 1  0  0)  ( 1 -1  0)  (-1  0  0)  (-1  1  0)
  ( 0  0  1)  ( 0  0  1)  ( 0  0  1)  ( 0  0  1)  ( 0  0  1)  ( 0  0  1)
Note: your k-points are not as symmetric as your crystal!

100 k-points: 10 x 10 x 1 Monkhorst-Pack grid
30 k-points in the irreducible part of the Brillouin zone
       k-points in crystal coordinates                weights
   0:     0.05000000   -0.05000000    0.00000000          2/100
   1:     0.05000000    0.05000000    0.00000000          2/100
   2:     0.15000000   -0.15000000    0.00000000          2/100
   3:     0.15000000   -0.05000000    0.00000000          4/100
   4:     0.15000000    0.05000000    0.00000000          4/100
   5:     0.15000000    0.15000000    0.00000000          2/100
   6:     0.25000000   -0.25000000    0.00000000          2/100
   7:     0.25000000   -0.15000000    0.00000000          4/100
   8:     0.25000000   -0.05000000    0.00000000          4/100
   9:     0.25000000    0.05000000    0.00000000          4/100
          ...
  29:     0.45000000    0.45000000    0.00000000          2/100

Wave functions: Plane wave expansion
  Cutoff energy: 750.000 eV
  Number of coefficients (min, max): 8100, 8220
  Pulay-stress correction: 0.000000 eV/Ang^3 (de/decut=0.000000)
  Using Numpy's FFT
  ScaLapack parameters: grid=1x1, blocksize=None
  Wavefunction extrapolation:
    Improved wavefunction reuse through dual PAW basis 

Eigensolver
   Davidson(niter=2, smin=None, normalize=True) 

Densities:
  Coarse grid: 20*20*160 grid
  Fine grid: 40*40*320 grid
  Total Charge: 0.000000 

Density mixing:
  Method: separate
  Backend: pulay
  Linear mixing parameter: 0.05
  Mixing with 5 old densities
  Damping of long wave oscillations: 50 

Hamiltonian:
  XC and Coulomb potentials evaluated on a 40*40*320 grid
  Using the PBE Exchange-Correlation functional
 

XC parameters: PBE with 2 nearest neighbor stencil

Memory estimate:
  Process memory now: 228.05 MiB
  Calculator: 33.27 MiB
    Density: 15.29 MiB
      Arrays: 6.35 MiB
      Localized functions: 6.50 MiB
      Mixer: 2.44 MiB
    Hamiltonian: 4.33 MiB
      Arrays: 4.15 MiB
      XC: 0.00 MiB
      Poisson: 0.00 MiB
      vbar: 0.18 MiB
    Wavefunctions: 13.65 MiB
      Arrays psit_nG: 6.02 MiB
      Eigensolver: 2.67 MiB
      Projections: 0.02 MiB
      Projectors: 2.26 MiB
      PW-descriptor: 2.68 MiB

Total number of cores used: 20
Parallelization over k-points: 10
Domain decomposition: 1 x 1 x 2

Number of atoms: 5
Number of atomic orbitals: 20
Number of bands in calculation: 16
Bands to converge: occupied states only
Number of valence electrons: 19

... initialized

Initializing position-dependent things.

Density initialized from atomic densities
Creating initial wave functions:
  16 bands from LCAO basis set

                    
                    
                    
                    
       O            
                    
       C            
                    
                    
       Al           
                    
        Al          
                    
                    
           Al       
                    
                    
                    
                    

Positions:
   0 Al     1.430477    0.825886   10.000000    ( 0.0000,  0.0000,  0.0000)
   1 Al     0.000000    1.651773   12.335959    ( 0.0000,  0.0000,  0.0000)
   2 Al     0.000000    0.000000   14.671918    ( 0.0000,  0.0000,  0.0000)
   3 C      0.000000    0.000000   16.471918    ( 0.0000,  0.0000,  0.0000)
   4 O      0.000000    0.000000   17.901918    ( 0.0000,  0.0000,  0.0000)

Unit cell:
           periodic     x           y           z      points  spacing
  1. axis:    yes    2.860954    0.000000    0.000000    20     0.1239
  2. axis:    yes    1.430477    2.477659    0.000000    20     0.1239
  3. axis:    no     0.000000    0.000000   24.671918   160     0.1542

  Lengths:   2.860954   2.860954  24.671918
  Angles:   90.000000  90.000000  60.000000

Effective grid spacing dv^(1/3) = 0.1398

                     log10-error:    total        iterations:
           time      wfs    density  energy       fermi  poisson
iter:   1  11:42:40  +0.86   +inf   -26.130196    2             
iter:   2  11:42:41  -1.01  -0.70   -25.536783    3             
iter:   3  11:42:42  -2.41  -0.82   -23.630051    3             
iter:   4  11:42:43  -3.03  -0.97   -23.588904    2             
iter:   5  11:42:44  -1.23  -0.99   -23.841267    4             
iter:   6  11:42:45  -1.56  -1.08   -23.437017    29            
iter:   7  11:42:46  -2.38  -1.38   -23.384363    3             
iter:   8  11:42:47  -3.19  -1.55   -23.346250    4             
iter:   9  11:42:49  -3.66  -1.73   -23.344141    4             
iter:  10  11:42:50  -3.04  -1.80   -23.329622    4             
iter:  11  11:42:51  -4.26  -2.08   -23.329468    3             
iter:  12  11:42:52  -4.27  -2.15   -23.327887    3             
iter:  13  11:42:53  -4.57  -2.35   -23.327439    3             
iter:  14  11:42:54  -4.41  -2.54   -23.326952    2             
iter:  15  11:42:55  -5.23  -2.74   -23.326886    2             
iter:  16  11:42:56  -5.34  -2.82   -23.326782    3             
iter:  17  11:42:57  -5.86  -3.10   -23.326809    3             
iter:  18  11:42:58  -6.30  -3.23   -23.326767    2             
iter:  19  11:43:00  -6.26  -3.30   -23.326776    2             
iter:  20  11:43:01  -6.62  -3.42   -23.326753    2             
iter:  21  11:43:02  -7.25  -3.55   -23.326748    2             
iter:  22  11:43:03  -7.10  -3.61   -23.326750    2             
iter:  23  11:43:04  -7.45  -3.77   -23.326748    2             
iter:  24  11:43:05  -7.84  -3.93   -23.326751    2             
iter:  25  11:43:06  -8.31  -4.00   -23.326746    2             
iter:  26  11:43:07  -7.86  -4.06   -23.326752    2             

Converged after 26 iterations.

Dipole moment: (-0.045870, -0.026483, -0.228075) |e|*Ang

Energy contributions relative to reference atoms: (reference = -22878.750211)

Kinetic:        +14.451274
Potential:      -13.137367
External:        +0.000000
XC:             -24.836920
Entropy (-ST):   -0.074975
Local:           +0.233748
--------------------------
Free energy:    -23.364240
Extrapolated:   -23.326752

Fermi level: -1.38538

Showing only first 2 kpts
 Kpt  Band  Eigenvalues  Occupancy
  0     7     -3.04562    0.04000
  0     8     -2.24768    0.03999
  0     9      1.39851    0.00000
  0    10      1.76292    0.00000

  1     7     -3.01149    0.04000
  1     8     -2.34162    0.04000
  1     9      1.35994    0.00000
  1    10      1.95915    0.00000


No gap
Timing:                              incl.     excl.
-----------------------------------------------------------
Hamiltonian:                         0.370     0.008   0.0% |
 Atomic:                             0.076     0.076   0.2% |
  XC Correction:                     0.000     0.000   0.0% |
 Calculate atomic Hamiltonians:      0.023     0.023   0.1% |
 Communicate:                        0.000     0.000   0.0% |
 Initialize Hamiltonian:             0.000     0.000   0.0% |
 Poisson:                            0.001     0.001   0.0% |
 XC 3D grid:                         0.261     0.261   0.8% |
LCAO initialization:                 1.204     0.138   0.4% |
 LCAO eigensolver:                   0.322     0.000   0.0% |
  Calculate projections:             0.000     0.000   0.0% |
  DenseAtomicCorrection:             0.000     0.000   0.0% |
  Distribute overlap matrix:         0.238     0.238   0.8% |
  Orbital Layouts:                   0.001     0.001   0.0% |
  Potential matrix:                  0.081     0.081   0.3% |
  Sum over cells:                    0.002     0.002   0.0% |
 LCAO to grid:                       0.639     0.639   2.1% ||
 Set positions (LCAO WFS):           0.106     0.040   0.1% |
  Basic WFS set positions:           0.001     0.001   0.0% |
  Basis functions set positions:     0.000     0.000   0.0% |
  P tci:                             0.007     0.007   0.0% |
  ST tci:                            0.029     0.029   0.1% |
  mktci:                             0.029     0.029   0.1% |
PWDescriptor:                        0.017     0.017   0.1% |
SCF-cycle:                          28.168     0.112   0.4% |
 Davidson:                          12.703     2.094   6.7% |--|
  Apply H:                           2.387     2.307   7.4% |--|
   HMM T:                            0.080     0.080   0.3% |
  Subspace diag:                     2.768     0.012   0.0% |
   calc_h_matrix:                    2.496     0.094   0.3% |
    Apply H:                         2.401     2.314   7.4% |--|
     HMM T:                          0.087     0.087   0.3% |
   diagonalize:                      0.030     0.030   0.1% |
   rotate_psi:                       0.231     0.231   0.7% |
  calc. matrices:                    5.050     0.507   1.6% ||
   Apply H:                          4.543     4.397  14.1% |-----|
    HMM T:                           0.146     0.146   0.5% |
  diagonalize:                       0.080     0.080   0.3% |
  rotate_psi:                        0.323     0.323   1.0% |
 Density:                            5.325     0.001   0.0% |
  Atomic density matrices:           0.059     0.059   0.2% |
  Mix:                               3.039     3.039   9.8% |---|
  Multipole moments:                 0.004     0.004   0.0% |
  Pseudo density:                    2.222     1.516   4.9% |-|
   Symmetrize density:               0.706     0.706   2.3% ||
 Hamiltonian:                       10.007     0.209   0.7% |
  Atomic:                            1.641     1.640   5.3% |-|
   XC Correction:                    0.000     0.000   0.0% |
  Calculate atomic Hamiltonians:     0.787     0.787   2.5% ||
  Communicate:                       0.005     0.005   0.0% |
  Poisson:                           0.035     0.035   0.1% |
  XC 3D grid:                        7.330     7.330  23.6% |--------|
 Orthonormalize:                     0.020     0.000   0.0% |
  calc_s_matrix:                     0.002     0.002   0.0% |
  inverse-cholesky:                  0.001     0.001   0.0% |
  projections:                       0.014     0.014   0.0% |
  rotate_psi_s:                      0.003     0.003   0.0% |
Set symmetry:                        0.007     0.007   0.0% |
Other:                               1.348     1.348   4.3% |-|
-----------------------------------------------------------
Total:                                        31.116 100.0%

Memory usage: 228.05 MiB
Date: Mon Dec  9 11:43:07 2019
