
  ___ ___ ___ _ _ _  
 |   |   |_  | | | | 
 | | | | | . | | | | 
 |__ |  _|___|_____|  19.8.1
 |___|_|             

User:   fadjar@cn0015
Date:   Mon Dec  9 11:40:47 2019
Arch:   x86_64
Pid:    16588
Python: 3.7.3
gpaw:   /app/anaconda3/lib/python3.7/site-packages/gpaw
_gpaw:  /app/anaconda3/bin/gpaw-python
ase:    /app/anaconda3/lib/python3.7/site-packages/ase-3.18.0-py3.7.egg/ase (version 3.18.0)
numpy:  /app/anaconda3/lib/python3.7/site-packages/numpy (version 1.16.4)
scipy:  /app/anaconda3/lib/python3.7/site-packages/scipy (version 1.3.0)
libxc:  4.3.4
units:  Angstrom and eV
cores:  20

Input parameters:
  kpts: [3 3 1]
  mode: {ecut: 750.0,
         gammacentered: False,
         name: pw}
  xc: PBE

System changes: positions, numbers, cell, pbc, initial_charges, initial_magmoms 

Initialize ...

Al-setup:
  name: Aluminium
  id: 0292cae29f5d6237e50f6abdd43a7bdd
  Z: 13
  valence: 3
  core: 10
  charge: 0.0
  file: /app/gpaw-setups-0.9.20000/Al.PBE.gz
  compensation charges: gauss, rc=0.34, lmax=2
  cutoffs: 1.91(filt), 2.36(core),
  valence states:
                energy  radius
    3s(2.00)    -7.753   1.085
    3p(1.00)    -2.712   1.085
    *s          19.459   1.085
    *p          24.499   1.085
    *d           0.000   1.085

  Using partial waves for Al as LCAO basis

C-setup:
  name: Carbon
  id: 4aa54d4b901d75f77cc0ea3eec22967b
  Z: 6
  valence: 4
  core: 2
  charge: 0.0
  file: /app/gpaw-setups-0.9.20000/C.PBE.gz
  compensation charges: gauss, rc=0.20, lmax=2
  cutoffs: 1.14(filt), 1.14(core),
  valence states:
                energy  radius
    2s(2.00)   -13.751   0.635
    2p(2.00)    -5.284   0.635
    *s          13.461   0.635
    *p          21.927   0.635
    *d           0.000   0.635

  Using partial waves for C as LCAO basis

O-setup:
  name: Oxygen
  id: 32ecd46bf208036f09c70b0ec9a88b78
  Z: 8
  valence: 6
  core: 2
  charge: 0.0
  file: /app/gpaw-setups-0.9.20000/O.PBE.gz
  compensation charges: gauss, rc=0.21, lmax=2
  cutoffs: 1.17(filt), 0.83(core),
  valence states:
                energy  radius
    2s(2.00)   -23.961   0.688
    2p(4.00)    -9.029   0.598
    *s           3.251   0.688
    *p          18.182   0.598
    *d           0.000   0.619

  Using partial waves for O as LCAO basis

Reference energy: -22878.750211

Spin-paired calculation

Occupation numbers:
  Fermi-Dirac: width=0.1000 eV

Convergence criteria:
  Maximum total energy change: 0.0005 eV / electron
  Maximum integral of absolute density change: 0.0001 electrons
  Maximum integral of absolute eigenstate change: 4e-08 eV^2
  Maximum number of iterations: 333

Symmetries present (total): 6

  ( 1  0  0)  ( 1 -1  0)  ( 0  1  0)  ( 0 -1  0)  (-1  1  0)  (-1  0  0)
  ( 0  1  0)  ( 0 -1  0)  ( 1  0  0)  ( 1 -1  0)  (-1  0  0)  (-1  1  0)
  ( 0  0  1)  ( 0  0  1)  ( 0  0  1)  ( 0  0  1)  ( 0  0  1)  ( 0  0  1)

9 k-points: 3 x 3 x 1 Monkhorst-Pack grid
3 k-points in the irreducible part of the Brillouin zone
       k-points in crystal coordinates                weights
   0:     0.00000000    0.00000000    0.00000000          1/9
   1:     0.33333333   -0.33333333    0.00000000          2/9
   2:     0.33333333    0.33333333    0.00000000          6/9

Wave functions: Plane wave expansion
  Cutoff energy: 750.000 eV
  Number of coefficients (min, max): 8106, 8173
  Pulay-stress correction: 0.000000 eV/Ang^3 (de/decut=0.000000)
  Using Numpy's FFT
  ScaLapack parameters: grid=1x1, blocksize=None
  Wavefunction extrapolation:
    Improved wavefunction reuse through dual PAW basis 

Eigensolver
   Davidson(niter=2, smin=None, normalize=True) 

Densities:
  Coarse grid: 20*20*160 grid
  Fine grid: 40*40*320 grid
  Total Charge: 0.000000 

Density mixing:
  Method: separate
  Backend: pulay
  Linear mixing parameter: 0.05
  Mixing with 5 old densities
  Damping of long wave oscillations: 50 

Hamiltonian:
  XC and Coulomb potentials evaluated on a 40*40*320 grid
  Using the PBE Exchange-Correlation functional
 

XC parameters: PBE with 2 nearest neighbor stencil

Memory estimate:
  Process memory now: 130.72 MiB
  Calculator: 13.38 MiB
    Density: 1.53 MiB
      Arrays: 0.63 MiB
      Localized functions: 0.65 MiB
      Mixer: 0.24 MiB
    Hamiltonian: 0.43 MiB
      Arrays: 0.42 MiB
      XC: 0.00 MiB
      Poisson: 0.00 MiB
      vbar: 0.02 MiB
    Wavefunctions: 11.42 MiB
      Arrays psit_nG: 5.99 MiB
      Eigensolver: 2.66 MiB
      Projections: 0.00 MiB
      Projectors: 0.22 MiB
      PW-descriptor: 2.55 MiB

Total number of cores used: 20
Domain decomposition: 1 x 2 x 10

Number of atoms: 5
Number of atomic orbitals: 20
Number of bands in calculation: 16
Bands to converge: occupied states only
Number of valence electrons: 19

... initialized

Initializing position-dependent things.

Density initialized from atomic densities
Creating initial wave functions:
  16 bands from LCAO basis set

                    
                    
                    
                    
       O            
                    
       C            
                    
                    
       Al           
                    
        Al          
                    
                    
           Al       
                    
                    
                    
                    

Positions:
   0 Al     1.430477    0.825886   10.000000    ( 0.0000,  0.0000,  0.0000)
   1 Al     0.000000    1.651773   12.335959    ( 0.0000,  0.0000,  0.0000)
   2 Al     0.000000    0.000000   14.671918    ( 0.0000,  0.0000,  0.0000)
   3 C      0.000000    0.000000   16.471918    ( 0.0000,  0.0000,  0.0000)
   4 O      0.000000    0.000000   17.901918    ( 0.0000,  0.0000,  0.0000)

Unit cell:
           periodic     x           y           z      points  spacing
  1. axis:    yes    2.860954    0.000000    0.000000    20     0.1239
  2. axis:    yes    1.430477    2.477659    0.000000    20     0.1239
  3. axis:    no     0.000000    0.000000   24.671918   160     0.1542

  Lengths:   2.860954   2.860954  24.671918
  Angles:   90.000000  90.000000  60.000000

Effective grid spacing dv^(1/3) = 0.1398

                     log10-error:    total        iterations:
           time      wfs    density  energy       fermi  poisson
iter:   1  11:40:49  +0.86   +inf   -26.328608    4             
iter:   2  11:40:49  -0.79  -0.65   -26.941450    32            
iter:   3  11:40:49  -2.45  -0.76   -23.488733    5             
iter:   4  11:40:50  -3.17  -0.94   -23.391308    4             
iter:   5  11:40:50  -1.63  -0.96   -23.131545    4             
iter:   6  11:40:50  -2.02  -1.14   -23.416947    4             
iter:   7  11:40:51  -1.29  -1.08   -23.589090    31            
iter:   8  11:40:51  -2.20  -1.10   -23.058325    6             
iter:   9  11:40:51  -3.12  -1.54   -23.043859    3             
iter:  10  11:40:51  -3.31  -1.61   -23.024782    4             
iter:  11  11:40:52  -3.03  -1.72   -23.009069    5             
iter:  12  11:40:52  -3.75  -2.02   -23.010010    4             
iter:  13  11:40:52  -4.15  -2.08   -23.007810    4             
iter:  14  11:40:53  -4.67  -2.31   -23.007422    3             
iter:  15  11:40:53  -3.96  -2.35   -23.006703    3             
iter:  16  11:40:53  -4.78  -2.52   -23.006447    3             
iter:  17  11:40:54  -4.89  -2.57   -23.006191    4             
iter:  18  11:40:54  -5.62  -2.83   -23.006154    3             
iter:  19  11:40:54  -5.65  -2.90   -23.006057    2             
iter:  20  11:40:54  -5.95  -3.06   -23.006003    2             
iter:  21  11:40:55  -6.54  -3.21   -23.005997    3             
iter:  22  11:40:55  -6.09  -3.27   -23.006001    3             
iter:  23  11:40:55  -6.75  -3.31   -23.005995    2             
iter:  24  11:40:56  -7.05  -3.52   -23.005989    2             
iter:  25  11:40:56  -7.53  -3.68   -23.005988    2             
iter:  26  11:40:56  -7.65  -3.74   -23.005993    2             
iter:  27  11:40:57  -7.39  -3.84   -23.006000    2             
iter:  28  11:40:57  -8.32  -4.04   -23.006000    2             

Converged after 28 iterations.

Dipole moment: (-0.057375, -0.033126, -0.255006) |e|*Ang

Energy contributions relative to reference atoms: (reference = -22878.750211)

Kinetic:        +12.944094
Potential:      -11.296425
External:        +0.000000
XC:             -24.861844
Entropy (-ST):   -0.047151
Local:           +0.231751
--------------------------
Free energy:    -23.029575
Extrapolated:   -23.006000

Fermi level: -1.24300

Showing only first 2 kpts
 Kpt  Band  Eigenvalues  Occupancy
  0     7     -2.82026    0.22222
  0     8     -2.30539    0.22222
  0     9      1.33285    0.00000
  0    10      2.26519    0.00000

  1     7     -3.80378    0.44444
  1     8     -2.84247    0.44444
  1     9     -2.31626    0.44443
  1    10     -1.80581    0.44285


No gap
Timing:                              incl.     excl.
-----------------------------------------------------------
Hamiltonian:                         0.122     0.006   0.1% |
 Atomic:                             0.000     0.000   0.0% |
  XC Correction:                     0.000     0.000   0.0% |
 Calculate atomic Hamiltonians:      0.004     0.004   0.0% |
 Communicate:                        0.066     0.066   0.7% |
 Initialize Hamiltonian:             0.000     0.000   0.0% |
 Poisson:                            0.000     0.000   0.0% |
 XC 3D grid:                         0.045     0.045   0.5% |
LCAO initialization:                 0.425     0.139   1.4% ||
 LCAO eigensolver:                   0.069     0.000   0.0% |
  Calculate projections:             0.000     0.000   0.0% |
  DenseAtomicCorrection:             0.000     0.000   0.0% |
  Distribute overlap matrix:         0.068     0.068   0.7% |
  Orbital Layouts:                   0.001     0.001   0.0% |
  Potential matrix:                  0.000     0.000   0.0% |
  Sum over cells:                    0.000     0.000   0.0% |
 LCAO to grid:                       0.169     0.169   1.7% ||
 Set positions (LCAO WFS):           0.048     0.005   0.0% |
  Basic WFS set positions:           0.001     0.001   0.0% |
  Basis functions set positions:     0.000     0.000   0.0% |
  P tci:                             0.000     0.000   0.0% |
  ST tci:                            0.013     0.013   0.1% |
  mktci:                             0.029     0.029   0.3% |
PWDescriptor:                        0.017     0.017   0.2% |
SCF-cycle:                           8.203     0.030   0.3% |
 Davidson:                           2.629     0.393   4.0% |-|
  Apply H:                           0.485     0.478   4.9% |-|
   HMM T:                            0.007     0.007   0.1% |
  Subspace diag:                     0.570     0.007   0.1% |
   calc_h_matrix:                    0.516     0.023   0.2% |
    Apply H:                         0.494     0.488   5.0% |-|
     HMM T:                          0.006     0.006   0.1% |
   diagonalize:                      0.029     0.029   0.3% |
   rotate_psi:                       0.017     0.017   0.2% |
  calc. matrices:                    1.082     0.155   1.6% ||
   Apply H:                          0.928     0.917   9.4% |---|
    HMM T:                           0.010     0.010   0.1% |
  diagonalize:                       0.074     0.074   0.8% |
  rotate_psi:                        0.025     0.025   0.3% |
 Density:                            2.300     0.000   0.0% |
  Atomic density matrices:           0.022     0.022   0.2% |
  Mix:                               1.038     1.038  10.7% |---|
  Multipole moments:                 0.003     0.003   0.0% |
  Pseudo density:                    1.237     0.468   4.8% |-|
   Symmetrize density:               0.769     0.769   7.9% |--|
 Hamiltonian:                        3.240     0.169   1.7% ||
  Atomic:                            0.007     0.006   0.1% |
   XC Correction:                    0.000     0.000   0.0% |
  Calculate atomic Hamiltonians:     0.115     0.115   1.2% |
  Communicate:                       1.754     1.754  18.0% |------|
  Poisson:                           0.004     0.004   0.0% |
  XC 3D grid:                        1.191     1.191  12.2% |----|
 Orthonormalize:                     0.004     0.000   0.0% |
  calc_s_matrix:                     0.000     0.000   0.0% |
  inverse-cholesky:                  0.001     0.001   0.0% |
  projections:                       0.002     0.002   0.0% |
  rotate_psi_s:                      0.000     0.000   0.0% |
Set symmetry:                        0.003     0.003   0.0% |
Other:                               0.958     0.958   9.9% |---|
-----------------------------------------------------------
Total:                                         9.728 100.0%

Memory usage: 138.15 MiB
Date: Mon Dec  9 11:40:57 2019
