
  ___ ___ ___ _ _ _  
 |   |   |_  | | | | 
 | | | | | . | | | | 
 |__ |  _|___|_____|  19.8.1
 |___|_|             

User:   fadjar@cn0015
Date:   Mon Dec  9 11:41:08 2019
Arch:   x86_64
Pid:    16588
Python: 3.7.3
gpaw:   /app/anaconda3/lib/python3.7/site-packages/gpaw
_gpaw:  /app/anaconda3/bin/gpaw-python
ase:    /app/anaconda3/lib/python3.7/site-packages/ase-3.18.0-py3.7.egg/ase (version 3.18.0)
numpy:  /app/anaconda3/lib/python3.7/site-packages/numpy (version 1.16.4)
scipy:  /app/anaconda3/lib/python3.7/site-packages/scipy (version 1.3.0)
libxc:  4.3.4
units:  Angstrom and eV
cores:  20

Input parameters:
  kpts: [5 5 1]
  mode: {ecut: 750.0,
         gammacentered: False,
         name: pw}
  xc: PBE

System changes: positions, numbers, cell, pbc, initial_charges, initial_magmoms 

Initialize ...

Al-setup:
  name: Aluminium
  id: 0292cae29f5d6237e50f6abdd43a7bdd
  Z: 13
  valence: 3
  core: 10
  charge: 0.0
  file: /app/gpaw-setups-0.9.20000/Al.PBE.gz
  compensation charges: gauss, rc=0.34, lmax=2
  cutoffs: 1.91(filt), 2.36(core),
  valence states:
                energy  radius
    3s(2.00)    -7.753   1.085
    3p(1.00)    -2.712   1.085
    *s          19.459   1.085
    *p          24.499   1.085
    *d           0.000   1.085

  Using partial waves for Al as LCAO basis

C-setup:
  name: Carbon
  id: 4aa54d4b901d75f77cc0ea3eec22967b
  Z: 6
  valence: 4
  core: 2
  charge: 0.0
  file: /app/gpaw-setups-0.9.20000/C.PBE.gz
  compensation charges: gauss, rc=0.20, lmax=2
  cutoffs: 1.14(filt), 1.14(core),
  valence states:
                energy  radius
    2s(2.00)   -13.751   0.635
    2p(2.00)    -5.284   0.635
    *s          13.461   0.635
    *p          21.927   0.635
    *d           0.000   0.635

  Using partial waves for C as LCAO basis

O-setup:
  name: Oxygen
  id: 32ecd46bf208036f09c70b0ec9a88b78
  Z: 8
  valence: 6
  core: 2
  charge: 0.0
  file: /app/gpaw-setups-0.9.20000/O.PBE.gz
  compensation charges: gauss, rc=0.21, lmax=2
  cutoffs: 1.17(filt), 0.83(core),
  valence states:
                energy  radius
    2s(2.00)   -23.961   0.688
    2p(4.00)    -9.029   0.598
    *s           3.251   0.688
    *p          18.182   0.598
    *d           0.000   0.619

  Using partial waves for O as LCAO basis

Reference energy: -22878.750211

Spin-paired calculation

Occupation numbers:
  Fermi-Dirac: width=0.1000 eV

Convergence criteria:
  Maximum total energy change: 0.0005 eV / electron
  Maximum integral of absolute density change: 0.0001 electrons
  Maximum integral of absolute eigenstate change: 4e-08 eV^2
  Maximum number of iterations: 333

Symmetries present (total): 6

  ( 1  0  0)  ( 1 -1  0)  ( 0  1  0)  ( 0 -1  0)  (-1  1  0)  (-1  0  0)
  ( 0  1  0)  ( 0 -1  0)  ( 1  0  0)  ( 1 -1  0)  (-1  0  0)  (-1  1  0)
  ( 0  0  1)  ( 0  0  1)  ( 0  0  1)  ( 0  0  1)  ( 0  0  1)  ( 0  0  1)

25 k-points: 5 x 5 x 1 Monkhorst-Pack grid
5 k-points in the irreducible part of the Brillouin zone
       k-points in crystal coordinates                weights
   0:     0.00000000    0.00000000    0.00000000          1/25
   1:     0.20000000    0.20000000    0.00000000          6/25
   2:     0.40000000   -0.20000000    0.00000000          6/25
   3:     0.40000000    0.20000000    0.00000000          6/25
   4:     0.40000000    0.40000000    0.00000000          6/25

Wave functions: Plane wave expansion
  Cutoff energy: 750.000 eV
  Number of coefficients (min, max): 8116, 8217
  Pulay-stress correction: 0.000000 eV/Ang^3 (de/decut=0.000000)
  Using Numpy's FFT
  ScaLapack parameters: grid=1x1, blocksize=None
  Wavefunction extrapolation:
    Improved wavefunction reuse through dual PAW basis 

Eigensolver
   Davidson(niter=2, smin=None, normalize=True) 

Densities:
  Coarse grid: 20*20*160 grid
  Fine grid: 40*40*320 grid
  Total Charge: 0.000000 

Density mixing:
  Method: separate
  Backend: pulay
  Linear mixing parameter: 0.05
  Mixing with 5 old densities
  Damping of long wave oscillations: 50 

Hamiltonian:
  XC and Coulomb potentials evaluated on a 40*40*320 grid
  Using the PBE Exchange-Correlation functional
 

XC parameters: PBE with 2 nearest neighbor stencil

Memory estimate:
  Process memory now: 141.13 MiB
  Calculator: 17.36 MiB
    Density: 7.65 MiB
      Arrays: 3.17 MiB
      Localized functions: 3.25 MiB
      Mixer: 1.22 MiB
    Hamiltonian: 2.16 MiB
      Arrays: 2.08 MiB
      XC: 0.00 MiB
      Poisson: 0.00 MiB
      vbar: 0.09 MiB
    Wavefunctions: 7.56 MiB
      Arrays psit_nG: 2.01 MiB
      Eigensolver: 2.67 MiB
      Projections: 0.00 MiB
      Projectors: 0.38 MiB
      PW-descriptor: 2.50 MiB

Total number of cores used: 20
Parallelization over k-points: 5
Domain decomposition: 1 x 1 x 4

Number of atoms: 5
Number of atomic orbitals: 20
Number of bands in calculation: 16
Bands to converge: occupied states only
Number of valence electrons: 19

... initialized

Initializing position-dependent things.

Density initialized from atomic densities
Creating initial wave functions:
  16 bands from LCAO basis set

                    
                    
                    
                    
       O            
                    
       C            
                    
                    
       Al           
                    
        Al          
                    
                    
           Al       
                    
                    
                    
                    

Positions:
   0 Al     1.430477    0.825886   10.000000    ( 0.0000,  0.0000,  0.0000)
   1 Al     0.000000    1.651773   12.335959    ( 0.0000,  0.0000,  0.0000)
   2 Al     0.000000    0.000000   14.671918    ( 0.0000,  0.0000,  0.0000)
   3 C      0.000000    0.000000   16.471918    ( 0.0000,  0.0000,  0.0000)
   4 O      0.000000    0.000000   17.901918    ( 0.0000,  0.0000,  0.0000)

Unit cell:
           periodic     x           y           z      points  spacing
  1. axis:    yes    2.860954    0.000000    0.000000    20     0.1239
  2. axis:    yes    1.430477    2.477659    0.000000    20     0.1239
  3. axis:    no     0.000000    0.000000   24.671918   160     0.1542

  Lengths:   2.860954   2.860954  24.671918
  Angles:   90.000000  90.000000  60.000000

Effective grid spacing dv^(1/3) = 0.1398

                     log10-error:    total        iterations:
           time      wfs    density  energy       fermi  poisson
iter:   1  11:41:11  +0.84   +inf   -25.946939    4             
iter:   2  11:41:11  -1.01  -0.68   -26.109347    4             
iter:   3  11:41:11  -2.38  -0.79   -23.725691    4             
iter:   4  11:41:12  -2.96  -0.98   -23.658650    3             
iter:   5  11:41:12  -1.36  -1.01   -24.026218    2             
iter:   6  11:41:13  -1.59  -1.04   -23.473566    29            
iter:   7  11:41:13  -2.29  -1.38   -23.455701    3             
iter:   8  11:41:14  -2.77  -1.57   -23.443209    2             
iter:   9  11:41:14  -3.14  -1.64   -23.405145    3             
iter:  10  11:41:15  -4.29  -1.82   -23.410711    3             
iter:  11  11:41:15  -2.76  -1.78   -23.394381    3             
iter:  12  11:41:15  -3.82  -2.20   -23.395038    3             
iter:  13  11:41:16  -4.67  -2.30   -23.394151    3             
iter:  14  11:41:16  -4.56  -2.49   -23.394064    2             
iter:  15  11:41:17  -4.85  -2.63   -23.393587    2             
iter:  16  11:41:17  -4.86  -2.79   -23.393337    2             
iter:  17  11:41:18  -5.80  -3.02   -23.393242    2             
iter:  18  11:41:18  -6.50  -3.11   -23.393255    2             
iter:  19  11:41:19  -6.09  -3.15   -23.393266    2             
iter:  20  11:41:19  -6.26  -3.24   -23.393268    2             
iter:  21  11:41:19  -7.13  -3.41   -23.393263    2             
iter:  22  11:41:20  -6.09  -3.45   -23.393242    2             
iter:  23  11:41:20  -7.08  -3.91   -23.393249    2             
iter:  24  11:41:21  -8.00  -4.00   -23.393250    2             
iter:  25  11:41:21  -8.08  -4.00   -23.393247    2             
iter:  26  11:41:22  -7.63  -4.05   -23.393247    2             

Converged after 26 iterations.

Dipole moment: (-0.052212, -0.030145, -0.223665) |e|*Ang

Energy contributions relative to reference atoms: (reference = -22878.750211)

Kinetic:        +14.463622
Potential:      -13.238160
External:        +0.000000
XC:             -24.815753
Entropy (-ST):   -0.070499
Local:           +0.232294
--------------------------
Free energy:    -23.428497
Extrapolated:   -23.393247

Fermi level: -1.43127

Showing only first 2 kpts
 Kpt  Band  Eigenvalues  Occupancy
  0     7     -2.96207    0.08000
  0     8     -2.49871    0.08000
  0     9      1.26000    0.00000
  0    10      2.11908    0.00000

  1     7     -3.18964    0.48000
  1     8     -1.82013    0.47037
  1     9      0.35950    0.00000
  1    10      1.71536    0.00000


No gap
Timing:                              incl.     excl.
-----------------------------------------------------------
Hamiltonian:                         0.239     0.008   0.1% |
 Atomic:                             0.000     0.000   0.0% |
  XC Correction:                     0.000     0.000   0.0% |
 Calculate atomic Hamiltonians:      0.011     0.011   0.1% |
 Communicate:                        0.074     0.074   0.6% |
 Initialize Hamiltonian:             0.000     0.000   0.0% |
 Poisson:                            0.001     0.001   0.0% |
 XC 3D grid:                         0.144     0.144   1.1% |
LCAO initialization:                 0.687     0.138   1.1% |
 LCAO eigensolver:                   0.292     0.000   0.0% |
  Calculate projections:             0.000     0.000   0.0% |
  DenseAtomicCorrection:             0.000     0.000   0.0% |
  Distribute overlap matrix:         0.291     0.291   2.2% ||
  Orbital Layouts:                   0.000     0.000   0.0% |
  Potential matrix:                  0.000     0.000   0.0% |
  Sum over cells:                    0.000     0.000   0.0% |
 LCAO to grid:                       0.174     0.174   1.3% ||
 Set positions (LCAO WFS):           0.083     0.044   0.3% |
  Basic WFS set positions:           0.001     0.001   0.0% |
  Basis functions set positions:     0.000     0.000   0.0% |
  P tci:                             0.000     0.000   0.0% |
  ST tci:                            0.010     0.010   0.1% |
  mktci:                             0.028     0.028   0.2% |
PWDescriptor:                        0.011     0.011   0.1% |
SCF-cycle:                          11.045     0.043   0.3% |
 Davidson:                           2.336     0.367   2.8% ||
  Apply H:                           0.444     0.429   3.3% ||
   HMM T:                            0.015     0.015   0.1% |
  Subspace diag:                     0.500     0.003   0.0% |
   calc_h_matrix:                    0.467     0.019   0.1% |
    Apply H:                         0.448     0.431   3.3% ||
     HMM T:                          0.018     0.018   0.1% |
   diagonalize:                      0.011     0.011   0.1% |
   rotate_psi:                       0.020     0.020   0.2% |
  calc. matrices:                    0.976     0.102   0.8% |
   Apply H:                          0.874     0.842   6.4% |--|
    HMM T:                           0.032     0.032   0.2% |
  diagonalize:                       0.021     0.021   0.2% |
  rotate_psi:                        0.026     0.026   0.2% |
 Density:                            2.791     0.001   0.0% |
  Atomic density matrices:           0.025     0.025   0.2% |
  Mix:                               1.747     1.747  13.4% |----|
  Multipole moments:                 0.004     0.004   0.0% |
  Pseudo density:                    1.014     0.316   2.4% ||
   Symmetrize density:               0.698     0.698   5.3% |-|
 Hamiltonian:                        5.872     0.173   1.3% ||
  Atomic:                            0.006     0.006   0.0% |
   XC Correction:                    0.000     0.000   0.0% |
  Calculate atomic Hamiltonians:     0.362     0.362   2.8% ||
  Communicate:                       1.643     1.643  12.6% |----|
  Poisson:                           0.015     0.015   0.1% |
  XC 3D grid:                        3.672     3.672  28.1% |----------|
 Orthonormalize:                     0.003     0.000   0.0% |
  calc_s_matrix:                     0.000     0.000   0.0% |
  inverse-cholesky:                  0.000     0.000   0.0% |
  projections:                       0.002     0.002   0.0% |
  rotate_psi_s:                      0.001     0.001   0.0% |
Set symmetry:                        0.004     0.004   0.0% |
Other:                               1.093     1.093   8.4% |--|
-----------------------------------------------------------
Total:                                        13.078 100.0%

Memory usage: 152.76 MiB
Date: Mon Dec  9 11:41:22 2019
