
  ___ ___ ___ _ _ _  
 |   |   |_  | | | | 
 | | | | | . | | | | 
 |__ |  _|___|_____|  19.8.1
 |___|_|             

User:   fadjar@cn0015
Date:   Mon Dec  9 11:41:36 2019
Arch:   x86_64
Pid:    16588
Python: 3.7.3
gpaw:   /app/anaconda3/lib/python3.7/site-packages/gpaw
_gpaw:  /app/anaconda3/bin/gpaw-python
ase:    /app/anaconda3/lib/python3.7/site-packages/ase-3.18.0-py3.7.egg/ase (version 3.18.0)
numpy:  /app/anaconda3/lib/python3.7/site-packages/numpy (version 1.16.4)
scipy:  /app/anaconda3/lib/python3.7/site-packages/scipy (version 1.3.0)
libxc:  4.3.4
units:  Angstrom and eV
cores:  20

Input parameters:
  kpts: [7 7 1]
  mode: {ecut: 750.0,
         gammacentered: False,
         name: pw}
  xc: PBE

System changes: positions, numbers, cell, pbc, initial_charges, initial_magmoms 

Initialize ...

Al-setup:
  name: Aluminium
  id: 0292cae29f5d6237e50f6abdd43a7bdd
  Z: 13
  valence: 3
  core: 10
  charge: 0.0
  file: /app/gpaw-setups-0.9.20000/Al.PBE.gz
  compensation charges: gauss, rc=0.34, lmax=2
  cutoffs: 1.91(filt), 2.36(core),
  valence states:
                energy  radius
    3s(2.00)    -7.753   1.085
    3p(1.00)    -2.712   1.085
    *s          19.459   1.085
    *p          24.499   1.085
    *d           0.000   1.085

  Using partial waves for Al as LCAO basis

C-setup:
  name: Carbon
  id: 4aa54d4b901d75f77cc0ea3eec22967b
  Z: 6
  valence: 4
  core: 2
  charge: 0.0
  file: /app/gpaw-setups-0.9.20000/C.PBE.gz
  compensation charges: gauss, rc=0.20, lmax=2
  cutoffs: 1.14(filt), 1.14(core),
  valence states:
                energy  radius
    2s(2.00)   -13.751   0.635
    2p(2.00)    -5.284   0.635
    *s          13.461   0.635
    *p          21.927   0.635
    *d           0.000   0.635

  Using partial waves for C as LCAO basis

O-setup:
  name: Oxygen
  id: 32ecd46bf208036f09c70b0ec9a88b78
  Z: 8
  valence: 6
  core: 2
  charge: 0.0
  file: /app/gpaw-setups-0.9.20000/O.PBE.gz
  compensation charges: gauss, rc=0.21, lmax=2
  cutoffs: 1.17(filt), 0.83(core),
  valence states:
                energy  radius
    2s(2.00)   -23.961   0.688
    2p(4.00)    -9.029   0.598
    *s           3.251   0.688
    *p          18.182   0.598
    *d           0.000   0.619

  Using partial waves for O as LCAO basis

Reference energy: -22878.750211

Spin-paired calculation

Occupation numbers:
  Fermi-Dirac: width=0.1000 eV

Convergence criteria:
  Maximum total energy change: 0.0005 eV / electron
  Maximum integral of absolute density change: 0.0001 electrons
  Maximum integral of absolute eigenstate change: 4e-08 eV^2
  Maximum number of iterations: 333

Symmetries present (total): 6

  ( 1  0  0)  ( 1 -1  0)  ( 0  1  0)  ( 0 -1  0)  (-1  1  0)  (-1  0  0)
  ( 0  1  0)  ( 0 -1  0)  ( 1  0  0)  ( 1 -1  0)  (-1  0  0)  (-1  1  0)
  ( 0  0  1)  ( 0  0  1)  ( 0  0  1)  ( 0  0  1)  ( 0  0  1)  ( 0  0  1)

49 k-points: 7 x 7 x 1 Monkhorst-Pack grid
8 k-points in the irreducible part of the Brillouin zone
       k-points in crystal coordinates                weights
   0:     0.00000000    0.00000000    0.00000000          1/49
   1:     0.14285714    0.14285714    0.00000000          6/49
   2:     0.28571429    0.14285714    0.00000000          6/49
   3:     0.28571429    0.28571429    0.00000000          6/49
   4:     0.42857143   -0.28571429    0.00000000          6/49
   5:     0.42857143   -0.14285714    0.00000000          6/49
   6:     0.42857143    0.28571429    0.00000000         12/49
   7:     0.42857143    0.42857143    0.00000000          6/49

Wave functions: Plane wave expansion
  Cutoff energy: 750.000 eV
  Number of coefficients (min, max): 8128, 8203
  Pulay-stress correction: 0.000000 eV/Ang^3 (de/decut=0.000000)
  Using Numpy's FFT
  ScaLapack parameters: grid=1x1, blocksize=None
  Wavefunction extrapolation:
    Improved wavefunction reuse through dual PAW basis 

Eigensolver
   Davidson(niter=2, smin=None, normalize=True) 

Densities:
  Coarse grid: 20*20*160 grid
  Fine grid: 40*40*320 grid
  Total Charge: 0.000000 

Density mixing:
  Method: separate
  Backend: pulay
  Linear mixing parameter: 0.05
  Mixing with 5 old densities
  Damping of long wave oscillations: 50 

Hamiltonian:
  XC and Coulomb potentials evaluated on a 40*40*320 grid
  Using the PBE Exchange-Correlation functional
 

XC parameters: PBE with 2 nearest neighbor stencil

Memory estimate:
  Process memory now: 154.77 MiB
  Calculator: 17.67 MiB
    Density: 6.12 MiB
      Arrays: 2.54 MiB
      Localized functions: 2.60 MiB
      Mixer: 0.98 MiB
    Hamiltonian: 1.73 MiB
      Arrays: 1.66 MiB
      XC: 0.00 MiB
      Poisson: 0.00 MiB
      vbar: 0.07 MiB
    Wavefunctions: 9.82 MiB
      Arrays psit_nG: 4.01 MiB
      Eigensolver: 2.67 MiB
      Projections: 0.01 MiB
      Projectors: 0.60 MiB
      PW-descriptor: 2.54 MiB

Total number of cores used: 20
Parallelization over k-points: 4
Domain decomposition: 1 x 1 x 5

Number of atoms: 5
Number of atomic orbitals: 20
Number of bands in calculation: 16
Bands to converge: occupied states only
Number of valence electrons: 19

... initialized

Initializing position-dependent things.

Density initialized from atomic densities
Creating initial wave functions:
  16 bands from LCAO basis set

                    
                    
                    
                    
       O            
                    
       C            
                    
                    
       Al           
                    
        Al          
                    
                    
           Al       
                    
                    
                    
                    

Positions:
   0 Al     1.430477    0.825886   10.000000    ( 0.0000,  0.0000,  0.0000)
   1 Al     0.000000    1.651773   12.335959    ( 0.0000,  0.0000,  0.0000)
   2 Al     0.000000    0.000000   14.671918    ( 0.0000,  0.0000,  0.0000)
   3 C      0.000000    0.000000   16.471918    ( 0.0000,  0.0000,  0.0000)
   4 O      0.000000    0.000000   17.901918    ( 0.0000,  0.0000,  0.0000)

Unit cell:
           periodic     x           y           z      points  spacing
  1. axis:    yes    2.860954    0.000000    0.000000    20     0.1239
  2. axis:    yes    1.430477    2.477659    0.000000    20     0.1239
  3. axis:    no     0.000000    0.000000   24.671918   160     0.1542

  Lengths:   2.860954   2.860954  24.671918
  Angles:   90.000000  90.000000  60.000000

Effective grid spacing dv^(1/3) = 0.1398

                     log10-error:    total        iterations:
           time      wfs    density  energy       fermi  poisson
iter:   1  11:41:38  +0.85   +inf   -26.026472    3             
iter:   2  11:41:39  -0.95  -0.70   -25.472808    3             
iter:   3  11:41:39  -2.29  -0.83   -23.679942    2             
iter:   4  11:41:39  -3.00  -0.96   -23.634051    2             
iter:   5  11:41:40  -1.22  -0.99   -23.882873    32            
iter:   6  11:41:40  -1.47  -1.07   -23.577660    32            
iter:   7  11:41:41  -2.28  -1.30   -23.472939    3             
iter:   8  11:41:41  -2.85  -1.43   -23.383395    4             
iter:   9  11:41:42  -2.88  -1.70   -23.385216    3             
iter:  10  11:41:42  -2.57  -1.77   -23.371850    3             
iter:  11  11:41:43  -3.40  -1.94   -23.363231    3             
iter:  12  11:41:43  -3.65  -2.15   -23.362220    3             
iter:  13  11:41:44  -3.94  -2.26   -23.362009    2             
iter:  14  11:41:44  -4.47  -2.34   -23.361632    3             
iter:  15  11:41:45  -5.44  -2.85   -23.361607    2             
iter:  16  11:41:45  -5.99  -2.99   -23.361607    2             
iter:  17  11:41:45  -5.89  -3.04   -23.361589    2             
iter:  18  11:41:46  -6.26  -3.17   -23.361554    2             
iter:  19  11:41:46  -5.90  -3.25   -23.361430    2             
iter:  20  11:41:47  -6.81  -3.57   -23.361429    2             
iter:  21  11:41:47  -6.88  -3.60   -23.361451    2             
iter:  22  11:41:48  -7.04  -3.80   -23.361452    2             
iter:  23  11:41:48  -7.65  -4.02   -23.361461    2             

Converged after 23 iterations.

Dipole moment: (-0.046748, -0.026990, -0.233645) |e|*Ang

Energy contributions relative to reference atoms: (reference = -22878.750211)

Kinetic:        +14.725433
Potential:      -13.413600
External:        +0.000000
XC:             -24.865790
Entropy (-ST):   -0.084651
Local:           +0.234821
--------------------------
Free energy:    -23.403787
Extrapolated:   -23.361461

Fermi level: -1.40197

Showing only first 2 kpts
 Kpt  Band  Eigenvalues  Occupancy
  0     7     -2.97602    0.04082
  0     8     -2.35685    0.04081
  0     9      1.33605    0.00000
  0    10      2.10131    0.00000

  1     7     -3.10114    0.24490
  1     8     -1.98488    0.24418
  1     9      1.03005    0.00000
  1    10      1.82526    0.00000


No gap
Timing:                              incl.     excl.
-----------------------------------------------------------
Hamiltonian:                         0.209     0.006   0.1% |
 Atomic:                             0.000     0.000   0.0% |
  XC Correction:                     0.000     0.000   0.0% |
 Calculate atomic Hamiltonians:      0.011     0.011   0.1% |
 Communicate:                        0.075     0.075   0.6% |
 Initialize Hamiltonian:             0.000     0.000   0.0% |
 Poisson:                            0.000     0.000   0.0% |
 XC 3D grid:                         0.115     0.115   0.9% |
LCAO initialization:                 0.698     0.138   1.1% |
 LCAO eigensolver:                   0.195     0.000   0.0% |
  Calculate projections:             0.000     0.000   0.0% |
  DenseAtomicCorrection:             0.000     0.000   0.0% |
  Distribute overlap matrix:         0.194     0.194   1.6% ||
  Orbital Layouts:                   0.001     0.001   0.0% |
  Potential matrix:                  0.000     0.000   0.0% |
  Sum over cells:                    0.000     0.000   0.0% |
 LCAO to grid:                       0.273     0.273   2.2% ||
 Set positions (LCAO WFS):           0.092     0.051   0.4% |
  Basic WFS set positions:           0.001     0.001   0.0% |
  Basis functions set positions:     0.000     0.000   0.0% |
  P tci:                             0.000     0.000   0.0% |
  ST tci:                            0.012     0.012   0.1% |
  mktci:                             0.028     0.028   0.2% |
PWDescriptor:                        0.014     0.014   0.1% |
SCF-cycle:                          10.388     0.022   0.2% |
 Davidson:                           3.628     0.493   4.0% |-|
  Apply H:                           0.705     0.683   5.5% |-|
   HMM T:                            0.022     0.022   0.2% |
  Subspace diag:                     0.795     0.004   0.0% |
   calc_h_matrix:                    0.746     0.026   0.2% |
    Apply H:                         0.720     0.696   5.6% |-|
     HMM T:                          0.024     0.024   0.2% |
   diagonalize:                      0.018     0.018   0.1% |
   rotate_psi:                       0.027     0.027   0.2% |
  calc. matrices:                    1.556     0.152   1.2% |
   Apply H:                          1.403     1.354  10.9% |---|
    HMM T:                           0.049     0.049   0.4% |
  diagonalize:                       0.041     0.041   0.3% |
  rotate_psi:                        0.038     0.038   0.3% |
 Density:                            2.261     0.000   0.0% |
  Atomic density matrices:           0.022     0.022   0.2% |
  Mix:                               1.135     1.135   9.2% |---|
  Multipole moments:                 0.003     0.003   0.0% |
  Pseudo density:                    1.102     0.490   4.0% |-|
   Symmetrize density:               0.611     0.611   4.9% |-|
 Hamiltonian:                        4.470     0.140   1.1% |
  Atomic:                            0.007     0.007   0.1% |
   XC Correction:                    0.000     0.000   0.0% |
  Calculate atomic Hamiltonians:     0.302     0.302   2.4% ||
  Communicate:                       1.459     1.459  11.8% |----|
  Poisson:                           0.012     0.012   0.1% |
  XC 3D grid:                        2.550     2.550  20.6% |-------|
 Orthonormalize:                     0.006     0.000   0.0% |
  calc_s_matrix:                     0.001     0.001   0.0% |
  inverse-cholesky:                  0.001     0.001   0.0% |
  projections:                       0.004     0.004   0.0% |
  rotate_psi_s:                      0.001     0.001   0.0% |
Set symmetry:                        0.005     0.005   0.0% |
Other:                               1.056     1.056   8.5% |--|
-----------------------------------------------------------
Total:                                        12.369 100.0%

Memory usage: 156.95 MiB
Date: Mon Dec  9 11:41:48 2019
