
  ___ ___ ___ _ _ _  
 |   |   |_  | | | | 
 | | | | | . | | | | 
 |__ |  _|___|_____|  19.8.1
 |___|_|             

User:   fadjar@cn0016
Date:   Mon Dec  9 13:25:46 2019
Arch:   x86_64
Pid:    22874
Python: 3.7.3
gpaw:   /app/anaconda3/lib/python3.7/site-packages/gpaw
_gpaw:  /app/anaconda3/bin/gpaw-python
ase:    /app/anaconda3/lib/python3.7/site-packages/ase-3.18.0-py3.7.egg/ase (version 3.18.0)
numpy:  /app/anaconda3/lib/python3.7/site-packages/numpy (version 1.16.4)
scipy:  /app/anaconda3/lib/python3.7/site-packages/scipy (version 1.3.0)
libxc:  4.3.4
units:  Angstrom and eV
cores:  10

Input parameters:
  kpts: [8 8 1]
  mode: {ecut: 750.0,
         gammacentered: False,
         name: pw}
  xc: PBE

System changes: positions, numbers, cell, pbc, initial_charges, initial_magmoms 

Initialize ...

Al-setup:
  name: Aluminium
  id: 0292cae29f5d6237e50f6abdd43a7bdd
  Z: 13
  valence: 3
  core: 10
  charge: 0.0
  file: /app/gpaw-setups-0.9.20000/Al.PBE.gz
  compensation charges: gauss, rc=0.34, lmax=2
  cutoffs: 1.91(filt), 2.36(core),
  valence states:
                energy  radius
    3s(2.00)    -7.753   1.085
    3p(1.00)    -2.712   1.085
    *s          19.459   1.085
    *p          24.499   1.085
    *d           0.000   1.085

  Using partial waves for Al as LCAO basis

C-setup:
  name: Carbon
  id: 4aa54d4b901d75f77cc0ea3eec22967b
  Z: 6
  valence: 4
  core: 2
  charge: 0.0
  file: /app/gpaw-setups-0.9.20000/C.PBE.gz
  compensation charges: gauss, rc=0.20, lmax=2
  cutoffs: 1.14(filt), 1.14(core),
  valence states:
                energy  radius
    2s(2.00)   -13.751   0.635
    2p(2.00)    -5.284   0.635
    *s          13.461   0.635
    *p          21.927   0.635
    *d           0.000   0.635

  Using partial waves for C as LCAO basis

O-setup:
  name: Oxygen
  id: 32ecd46bf208036f09c70b0ec9a88b78
  Z: 8
  valence: 6
  core: 2
  charge: 0.0
  file: /app/gpaw-setups-0.9.20000/O.PBE.gz
  compensation charges: gauss, rc=0.21, lmax=2
  cutoffs: 1.17(filt), 0.83(core),
  valence states:
                energy  radius
    2s(2.00)   -23.961   0.688
    2p(4.00)    -9.029   0.598
    *s           3.251   0.688
    *p          18.182   0.598
    *d           0.000   0.619

  Using partial waves for O as LCAO basis

Reference energy: -22878.750211

Spin-paired calculation

Occupation numbers:
  Fermi-Dirac: width=0.1000 eV

Convergence criteria:
  Maximum total energy change: 0.0005 eV / electron
  Maximum integral of absolute density change: 0.0001 electrons
  Maximum integral of absolute eigenstate change: 4e-08 eV^2
  Maximum number of iterations: 333

Symmetries present (total): 6

  ( 1  0  0)  ( 1 -1  0)  ( 0  1  0)  ( 0 -1  0)  (-1  1  0)  (-1  0  0)
  ( 0  1  0)  ( 0 -1  0)  ( 1  0  0)  ( 1 -1  0)  (-1  0  0)  (-1  1  0)
  ( 0  0  1)  ( 0  0  1)  ( 0  0  1)  ( 0  0  1)  ( 0  0  1)  ( 0  0  1)
Note: your k-points are not as symmetric as your crystal!

64 k-points: 8 x 8 x 1 Monkhorst-Pack grid
20 k-points in the irreducible part of the Brillouin zone
       k-points in crystal coordinates                weights
   0:     0.06250000   -0.06250000    0.00000000          2/64
   1:     0.06250000    0.06250000    0.00000000          2/64
   2:     0.18750000   -0.18750000    0.00000000          2/64
   3:     0.18750000   -0.06250000    0.00000000          4/64
   4:     0.18750000    0.06250000    0.00000000          4/64
   5:     0.18750000    0.18750000    0.00000000          2/64
   6:     0.31250000   -0.31250000    0.00000000          2/64
   7:     0.31250000   -0.18750000    0.00000000          4/64
   8:     0.31250000   -0.06250000    0.00000000          4/64
   9:     0.31250000    0.06250000    0.00000000          4/64
          ...
  19:     0.43750000    0.43750000    0.00000000          2/64

Wave functions: Plane wave expansion
  Cutoff energy: 750.000 eV
  Number of coefficients (min, max): 8091, 8217
  Pulay-stress correction: 0.000000 eV/Ang^3 (de/decut=0.000000)
  Using Numpy's FFT
  ScaLapack parameters: grid=1x1, blocksize=None
  Wavefunction extrapolation:
    Improved wavefunction reuse through dual PAW basis 

Eigensolver
   Davidson(niter=2, smin=None, normalize=True) 

Densities:
  Coarse grid: 20*20*160 grid
  Fine grid: 40*40*320 grid
  Total Charge: 0.000000 

Density mixing:
  Method: separate
  Backend: pulay
  Linear mixing parameter: 0.05
  Mixing with 5 old densities
  Damping of long wave oscillations: 50 

Hamiltonian:
  XC and Coulomb potentials evaluated on a 40*40*320 grid
  Using the PBE Exchange-Correlation functional
 

XC parameters: PBE with 2 nearest neighbor stencil

Memory estimate:
  Process memory now: 96.87 MiB
  Calculator: 51.64 MiB
    Density: 30.58 MiB
      Arrays: 12.70 MiB
      Localized functions: 13.00 MiB
      Mixer: 4.88 MiB
    Hamiltonian: 8.65 MiB
      Arrays: 8.30 MiB
      XC: 0.00 MiB
      Poisson: 0.00 MiB
      vbar: 0.35 MiB
    Wavefunctions: 12.41 MiB
      Arrays psit_nG: 4.01 MiB
      Eigensolver: 2.67 MiB
      Projections: 0.03 MiB
      Projectors: 3.00 MiB
      PW-descriptor: 2.69 MiB

Total number of cores used: 10
Parallelization over k-points: 10

Number of atoms: 5
Number of atomic orbitals: 20
Number of bands in calculation: 16
Bands to converge: occupied states only
Number of valence electrons: 19

... initialized

Initializing position-dependent things.

Density initialized from atomic densities
Creating initial wave functions:
  16 bands from LCAO basis set

                    
                    
                    
                    
       O            
                    
       C            
                    
                    
       Al           
                    
        Al          
                    
                    
           Al       
                    
                    
                    
                    

Positions:
   0 Al     1.430477    0.825886   10.000000    ( 0.0000,  0.0000,  0.0000)
   1 Al     0.000000    1.651773   12.335959    ( 0.0000,  0.0000,  0.0000)
   2 Al     0.000000    0.000000   14.671918    ( 0.0000,  0.0000,  0.0000)
   3 C      0.000000    0.000000   16.471918    ( 0.0000,  0.0000,  0.0000)
   4 O      0.000000    0.000000   17.901918    ( 0.0000,  0.0000,  0.0000)

Unit cell:
           periodic     x           y           z      points  spacing
  1. axis:    yes    2.860954    0.000000    0.000000    20     0.1239
  2. axis:    yes    1.430477    2.477659    0.000000    20     0.1239
  3. axis:    no     0.000000    0.000000   24.671918   160     0.1542

  Lengths:   2.860954   2.860954  24.671918
  Angles:   90.000000  90.000000  60.000000

Effective grid spacing dv^(1/3) = 0.1398

                     log10-error:    total        iterations:
           time      wfs    density  energy       fermi  poisson
iter:   1  13:25:50  +0.87   +inf   -26.109384    3             
iter:   2  13:25:51  -0.96  -0.69   -25.974506    3             
iter:   3  13:25:52  -2.37  -0.80   -23.669249    4             
iter:   4  13:25:53  -3.04  -0.97   -23.622943    3             
iter:   5  13:25:54  -1.24  -0.99   -23.937551    4             
iter:   6  13:25:56  -1.57  -1.05   -23.426315    28            
iter:   7  13:25:57  -2.33  -1.40   -23.412017    3             
iter:   8  13:25:58  -3.15  -1.53   -23.365910    4             
iter:   9  13:25:59  -4.11  -1.73   -23.361190    3             
iter:  10  13:26:00  -3.31  -1.79   -23.356554    4             
iter:  11  13:26:01  -3.99  -1.96   -23.352433    3             
iter:  12  13:26:02  -4.53  -2.15   -23.351432    3             
iter:  13  13:26:04  -4.45  -2.25   -23.350501    3             
iter:  14  13:26:05  -3.76  -2.35   -23.349485    3             
iter:  15  13:26:06  -4.51  -2.53   -23.349264    2             
iter:  16  13:26:07  -5.04  -2.65   -23.348819    3             
iter:  17  13:26:08  -5.61  -2.95   -23.348718    2             
iter:  18  13:26:09  -6.01  -3.14   -23.348661    3             
iter:  19  13:26:10  -6.71  -3.29   -23.348653    2             
iter:  20  13:26:12  -6.52  -3.38   -23.348640    2             
iter:  21  13:26:13  -7.37  -3.58   -23.348637    2             
iter:  22  13:26:14  -6.91  -3.61   -23.348637    2             
iter:  23  13:26:15  -7.54  -3.89   -23.348645    2             
iter:  24  13:26:16  -7.94  -4.14   -23.348646    2             

Converged after 24 iterations.

Dipole moment: (-0.047778, -0.027584, -0.228493) |e|*Ang

Energy contributions relative to reference atoms: (reference = -22878.750211)

Kinetic:        +14.433010
Potential:      -13.149447
External:        +0.000000
XC:             -24.830945
Entropy (-ST):   -0.068900
Local:           +0.233187
--------------------------
Free energy:    -23.383096
Extrapolated:   -23.348646

Fermi level: -1.36263

Showing only first 2 kpts
 Kpt  Band  Eigenvalues  Occupancy
  0     7     -3.06348    0.06250
  0     8     -2.18804    0.06248
  0     9      1.33479    0.00000
  0    10      1.70928    0.00000

  1     7     -3.00926    0.06250
  1     8     -2.33201    0.06250
  1     9      1.36638    0.00000
  1    10      1.89971    0.00000


No gap

Forces in eV/Ang:
  0 Al    0.00000    0.00000   -0.23548
  1 Al   -0.00000    0.00000   -0.02548
  2 Al    0.00000    0.00000   -2.40653
  3 C    -0.00000    0.00000   14.15339
  4 O     0.00000   -0.00000  -11.48576

System changes: positions 

Initializing position-dependent things.

Density initialized from wave functions
                    
                    
                    
                    
       O            
                    
       C            
                    
                    
       Al           
                    
        Al          
                    
                    
           Al       
                    
                    
                    
                    

Positions:
   0 Al     1.430477    0.825886    9.999334    ( 0.0000,  0.0000,  0.0000)
   1 Al    -0.000000    1.651773   12.335887    ( 0.0000,  0.0000,  0.0000)
   2 Al     0.000000    0.000000   14.665117    ( 0.0000,  0.0000,  0.0000)
   3 C     -0.000000    0.000000   16.511918    ( 0.0000,  0.0000,  0.0000)
   4 O      0.000000   -0.000000   17.869458    ( 0.0000,  0.0000,  0.0000)

Unit cell:
           periodic     x           y           z      points  spacing
  1. axis:    yes    2.860954    0.000000    0.000000    20     0.1239
  2. axis:    yes    1.430477    2.477659    0.000000    20     0.1239
  3. axis:    no     0.000000    0.000000   24.671918   160     0.1542

  Lengths:   2.860954   2.860954  24.671918
  Angles:   90.000000  90.000000  60.000000

Effective grid spacing dv^(1/3) = 0.1398

                     log10-error:    total        iterations:
           time      wfs    density  energy       fermi  poisson
iter:   1  13:26:18  -1.38   +inf   -26.958657    4             
iter:   2  13:26:19  -0.87  -0.80   -25.878046    3             
iter:   3  13:26:20  -2.73  -0.92   -24.339723    4             
iter:   4  13:26:21  -3.64  -1.61   -24.308623    3             
iter:   5  13:26:22  -2.22  -1.73   -24.272039    4             
iter:   6  13:26:24  -3.93  -1.94   -24.265318    3             
iter:   7  13:26:25  -3.19  -2.07   -24.259511    3             
iter:   8  13:26:26  -3.70  -2.30   -24.258383    3             
iter:   9  13:26:27  -4.40  -2.38   -24.257547    2             
iter:  10  13:26:28  -5.06  -2.69   -24.257489    3             
iter:  11  13:26:29  -5.46  -2.89   -24.257508    2             
iter:  12  13:26:30  -5.97  -3.01   -24.257508    2             
iter:  13  13:26:32  -5.66  -3.10   -24.257495    3             
iter:  14  13:26:33  -6.41  -3.40   -24.257489    2             
iter:  15  13:26:34  -6.90  -3.41   -24.257485    2             
iter:  16  13:26:35  -6.50  -3.45   -24.257513    2             
iter:  17  13:26:36  -6.66  -3.67   -24.257519    2             
iter:  18  13:26:37  -7.11  -3.76   -24.257510    2             
iter:  19  13:26:38  -7.22  -3.82   -24.257510    2             
iter:  20  13:26:40  -7.58  -3.91   -24.257510    2             
iter:  21  13:26:41  -8.21  -4.02   -24.257511    2             

Converged after 21 iterations.

Dipole moment: (-0.046337, -0.026752, -0.201345) |e|*Ang

Energy contributions relative to reference atoms: (reference = -22878.750211)

Kinetic:        +15.263586
Potential:      -14.178189
External:        +0.000000
XC:             -25.542432
Entropy (-ST):   -0.067367
Local:           +0.233208
--------------------------
Free energy:    -24.291195
Extrapolated:   -24.257511

Fermi level: -1.19525

Showing only first 2 kpts
 Kpt  Band  Eigenvalues  Occupancy
  0     7     -3.68576    0.06250
  0     8     -2.10301    0.06249
  0     9      1.52383    0.00000
  0    10      1.91123    0.00000

  1     7     -3.63251    0.06250
  1     8     -2.25135    0.06250
  1     9      1.47322    0.00000
  1    10      2.18261    0.00000


No gap

Forces in eV/Ang:
  0 Al    0.00000    0.00000   -0.22231
  1 Al    0.00000    0.00000   -0.06491
  2 Al    0.00000    0.00000   -1.47969
  3 C     0.00000    0.00000   12.40781
  4 O    -0.00000   -0.00000  -10.63712

System changes: positions 

Initializing position-dependent things.

Density initialized from wave functions
                    
                    
                    
                    
       O            
                    
       C            
                    
       Al           
                    
                    
        Al          
                    
                    
           Al       
                    
                    
                    
                    

Positions:
   0 Al     1.430477    0.825886    9.998450    ( 0.0000,  0.0000,  0.0000)
   1 Al    -0.000000    1.651773   12.335169    ( 0.0000,  0.0000,  0.0000)
   2 Al    -0.000000   -0.000000   14.668146    ( 0.0000,  0.0000,  0.0000)
   3 C     -0.000000    0.000000   16.550549    ( 0.0000,  0.0000,  0.0000)
   4 O     -0.000000    0.000000   17.829458    ( 0.0000,  0.0000,  0.0000)

Unit cell:
           periodic     x           y           z      points  spacing
  1. axis:    yes    2.860954    0.000000    0.000000    20     0.1239
  2. axis:    yes    1.430477    2.477659    0.000000    20     0.1239
  3. axis:    no     0.000000    0.000000   24.671918   160     0.1542

  Lengths:   2.860954   2.860954  24.671918
  Angles:   90.000000  90.000000  60.000000

Effective grid spacing dv^(1/3) = 0.1398

                     log10-error:    total        iterations:
           time      wfs    density  energy       fermi  poisson
iter:   1  13:26:42  -1.24   +inf   -28.789026    32            
iter:   2  13:26:44  -0.60  -0.75   -26.530441    30            
iter:   3  13:26:45  -2.60  -0.94   -25.181825    4             
iter:   4  13:26:46  -3.48  -1.55   -25.129674    3             
iter:   5  13:26:47  -2.66  -1.71   -25.090608    3             
iter:   6  13:26:48  -3.18  -1.89   -25.080174    4             
iter:   7  13:26:49  -3.42  -2.08   -25.075848    3             
iter:   8  13:26:50  -3.52  -2.17   -25.072354    2             
iter:   9  13:26:52  -4.41  -2.45   -25.071983    3             
iter:  10  13:26:53  -4.58  -2.56   -25.071768    2             
iter:  11  13:26:54  -5.50  -2.86   -25.071754    2             
iter:  12  13:26:55  -5.82  -2.91   -25.071714    3             
iter:  13  13:26:56  -5.87  -3.02   -25.071714    3             
iter:  14  13:26:57  -6.26  -3.17   -25.071731    2             
iter:  15  13:26:58  -5.91  -3.24   -25.071782    2             
iter:  16  13:27:00  -6.00  -3.36   -25.071774    2             
iter:  17  13:27:01  -7.02  -3.50   -25.071764    2             
iter:  18  13:27:02  -6.77  -3.59   -25.071752    2             
iter:  19  13:27:03  -7.11  -3.71   -25.071757    2             
iter:  20  13:27:04  -8.10  -3.76   -25.071758    2             
iter:  21  13:27:05  -7.71  -3.85   -25.071761    2             
iter:  22  13:27:06  -7.83  -4.02   -25.071757    2             

Converged after 22 iterations.

Dipole moment: (-0.044196, -0.025517, -0.164804) |e|*Ang

Energy contributions relative to reference atoms: (reference = -22878.750211)

Kinetic:        +18.544098
Potential:      -17.142301
External:        +0.000000
XC:             -26.672248
Entropy (-ST):   -0.064957
Local:           +0.231173
--------------------------
Free energy:    -25.104235
Extrapolated:   -25.071757

Fermi level: -0.98327

Showing only first 2 kpts
 Kpt  Band  Eigenvalues  Occupancy
  0     7     -4.48577    0.06250
  0     8     -1.97884    0.06250
  0     9      1.71186    0.00000
  0    10      2.21382    0.00000

  1     7     -4.43408    0.06250
  1     8     -2.13091    0.06250
  1     9      1.61626    0.00000
  1    10      2.53304    0.00000


No gap

Forces in eV/Ang:
  0 Al    0.00000    0.00000   -0.22577
  1 Al    0.00000   -0.00000   -0.06420
  2 Al   -0.00000    0.00000   -0.98120
  3 C    -0.00000    0.00000    9.63884
  4 O     0.00000    0.00000   -8.36789

System changes: positions 

Initializing position-dependent things.

Density initialized from wave functions
                    
                    
                    
                    
       O            
                    
       C            
                    
       Al           
                    
        Al          
                    
                    
           Al       
                    
                    
                    
                    

Positions:
   0 Al     1.430477    0.825886    9.996667    ( 0.0000,  0.0000,  0.0000)
   1 Al    -0.000000    1.651773   12.334248    ( 0.0000,  0.0000,  0.0000)
   2 Al    -0.000000    0.000000   14.673881    ( 0.0000,  0.0000,  0.0000)
   3 C     -0.000000    0.000000   16.587514    ( 0.0000,  0.0000,  0.0000)
   4 O     -0.000000    0.000000   17.789458    ( 0.0000,  0.0000,  0.0000)

Unit cell:
           periodic     x           y           z      points  spacing
  1. axis:    yes    2.860954    0.000000    0.000000    20     0.1239
  2. axis:    yes    1.430477    2.477659    0.000000    20     0.1239
  3. axis:    no     0.000000    0.000000   24.671918   160     0.1542

  Lengths:   2.860954   2.860954  24.671918
  Angles:   90.000000  90.000000  60.000000

Effective grid spacing dv^(1/3) = 0.1398

                     log10-error:    total        iterations:
           time      wfs    density  energy       fermi  poisson
iter:   1  13:27:08  -1.22   +inf   -29.208601    33            
iter:   2  13:27:09  -1.37  -0.86   -26.015215    32            
iter:   3  13:27:10  -2.32  -1.21   -25.734942    4             
iter:   4  13:27:12  -2.65  -1.55   -25.656144    4             
iter:   5  13:27:13  -3.53  -1.65   -25.638436    3             
iter:   6  13:27:14  -2.39  -1.79   -25.618631    3             
iter:   7  13:27:15  -3.92  -1.88   -25.606122    3             
iter:   8  13:27:16  -3.55  -2.08   -25.604096    3             
iter:   9  13:27:17  -4.05  -2.28   -25.601660    3             
iter:  10  13:27:18  -4.32  -2.59   -25.601353    3             
iter:  11  13:27:20  -4.67  -2.76   -25.601247    3             
iter:  12  13:27:21  -6.10  -3.07   -25.601228    2             
iter:  13  13:27:22  -5.53  -3.10   -25.601287    2             
iter:  14  13:27:23  -6.35  -3.32   -25.601306    2             
iter:  15  13:27:24  -6.25  -3.33   -25.601283    2             
iter:  16  13:27:25  -7.12  -3.63   -25.601288    2             
iter:  17  13:27:26  -7.20  -3.71   -25.601288    2             
iter:  18  13:27:28  -7.71  -3.86   -25.601290    2             
iter:  19  13:27:29  -7.51  -3.90   -25.601281    2             
iter:  20  13:27:30  -8.08  -4.06   -25.601279    2             

Converged after 20 iterations.

Dipole moment: (-0.041946, -0.024218, -0.120768) |e|*Ang

Energy contributions relative to reference atoms: (reference = -22878.750211)

Kinetic:        +24.185641
Potential:      -21.884686
External:        +0.000000
XC:             -28.100557
Entropy (-ST):   -0.062278
Local:           +0.229462
--------------------------
Free energy:    -25.632418
Extrapolated:   -25.601279

Fermi level: -0.73103

Showing only first 2 kpts
 Kpt  Band  Eigenvalues  Occupancy
  0     7     -5.26591    0.06250
  0     8     -1.81760    0.06250
  0     9      1.90632    0.00000
  0    10      2.59844    0.00000

  1     7     -5.35514    0.06250
  1     8     -1.97283    0.06250
  1     9      1.78625    0.00000
  1    10      2.94980    0.00000


No gap

Forces in eV/Ang:
  0 Al   -0.00000    0.00000   -0.21750
  1 Al   -0.00000   -0.00000   -0.06841
  2 Al    0.00000    0.00000   -0.65837
  3 C     0.00000    0.00000    4.92508
  4 O     0.00000    0.00000   -3.98332

System changes: positions 

Initializing position-dependent things.

Density initialized from wave functions
                    
                    
                    
                    
       O            
                    
       C            
                    
       Al           
                    
        Al          
                    
                    
           Al       
                    
                    
                    
                    

Positions:
   0 Al     1.430477    0.825886    9.991935    ( 0.0000,  0.0000,  0.0000)
   1 Al    -0.000000    1.651773   12.332276    ( 0.0000,  0.0000,  0.0000)
   2 Al    -0.000000    0.000000   14.675337    ( 0.0000,  0.0000,  0.0000)
   3 C     -0.000000    0.000000   16.627215    ( 0.0000,  0.0000,  0.0000)
   4 O     -0.000000    0.000000   17.754935    ( 0.0000,  0.0000,  0.0000)

Unit cell:
           periodic     x           y           z      points  spacing
  1. axis:    yes    2.860954    0.000000    0.000000    20     0.1239
  2. axis:    yes    1.430477    2.477659    0.000000    20     0.1239
  3. axis:    no     0.000000    0.000000   24.671918   160     0.1542

  Lengths:   2.860954   2.860954  24.671918
  Angles:   90.000000  90.000000  60.000000

Effective grid spacing dv^(1/3) = 0.1398

                     log10-error:    total        iterations:
           time      wfs    density  energy       fermi  poisson
iter:   1  13:27:31  -1.23   +inf   -29.101796    32            
iter:   2  13:27:33  -1.88  -0.93   -26.260143    31            
iter:   3  13:27:34  -2.13  -1.23   -25.866032    32            
iter:   4  13:27:35  -2.44  -1.45   -25.731461    4             
iter:   5  13:27:36  -2.70  -1.69   -25.690709    3             
iter:   6  13:27:37  -3.03  -1.99   -25.686081    3             
iter:   7  13:27:38  -3.81  -1.97   -25.681484    3             
iter:   8  13:27:40  -4.00  -2.23   -25.679698    3             
iter:   9  13:27:41  -4.76  -2.38   -25.679358    2             
iter:  10  13:27:42  -4.28  -2.44   -25.678760    3             
iter:  11  13:27:43  -5.28  -2.77   -25.678745    3             
iter:  12  13:27:44  -6.06  -2.86   -25.678746    3             
iter:  13  13:27:45  -5.23  -2.93   -25.678711    3             
iter:  14  13:27:46  -6.40  -3.19   -25.678717    2             
iter:  15  13:27:48  -6.29  -3.23   -25.678743    2             
iter:  16  13:27:49  -6.73  -3.51   -25.678748    2             
iter:  17  13:27:50  -7.26  -3.75   -25.678736    2             
iter:  18  13:27:51  -8.06  -3.85   -25.678735    2             
iter:  19  13:27:52  -7.25  -3.87   -25.678737    2             
iter:  20  13:27:53  -7.81  -4.19   -25.678734    2             

Converged after 20 iterations.

Dipole moment: (-0.039927, -0.023052, -0.069267) |e|*Ang

Energy contributions relative to reference atoms: (reference = -22878.750211)

Kinetic:        +32.292673
Potential:      -28.382516
External:        +0.000000
XC:             -29.768568
Entropy (-ST):   -0.059577
Local:           +0.209465
--------------------------
Free energy:    -25.708523
Extrapolated:   -25.678734

Fermi level: -0.43506

Showing only first 2 kpts
 Kpt  Band  Eigenvalues  Occupancy
  0     7     -5.12339    0.06250
  0     8     -1.62680    0.06250
  0     9      2.10952    0.00000
  0    10      3.06866    0.00000

  1     7     -5.29826    0.06250
  1     8     -1.78506    0.06250
  1     9      1.97281    0.00000
  1    10      3.44936    0.00000


No gap

Forces in eV/Ang:
  0 Al    0.00000    0.00000   -0.20406
  1 Al    0.00000    0.00000   -0.07953
  2 Al   -0.00000    0.00000   -0.35226
  3 C     0.00000    0.00000   -2.78156
  4 O     0.00000    0.00000    3.41768

System changes: positions 

Initializing position-dependent things.

Density initialized from wave functions
                    
                    
                    
                    
       O            
                    
       C            
                    
       Al           
                    
        Al          
                    
                    
           Al       
                    
                    
                    
                    

Positions:
   0 Al     1.430477    0.825886    9.990779    ( 0.0000,  0.0000,  0.0000)
   1 Al    -0.000000    1.651773   12.331926    ( 0.0000,  0.0000,  0.0000)
   2 Al    -0.000000    0.000000   14.668861    ( 0.0000,  0.0000,  0.0000)
   3 C      0.000000    0.000000   16.615924    ( 0.0000,  0.0000,  0.0000)
   4 O     -0.000000    0.000000   17.774228    ( 0.0000,  0.0000,  0.0000)

Unit cell:
           periodic     x           y           z      points  spacing
  1. axis:    yes    2.860954    0.000000    0.000000    20     0.1239
  2. axis:    yes    1.430477    2.477659    0.000000    20     0.1239
  3. axis:    no     0.000000    0.000000   24.671918   160     0.1542

  Lengths:   2.860954   2.860954  24.671918
  Angles:   90.000000  90.000000  60.000000

Effective grid spacing dv^(1/3) = 0.1398

                     log10-error:    total        iterations:
           time      wfs    density  energy       fermi  poisson
iter:   1  13:27:55  -1.54   +inf   -27.020287    4             
iter:   2  13:27:56  -2.48  -1.00   -26.199981    4             
iter:   3  13:27:57  -3.24  -1.20   -25.736951    3             
iter:   4  13:27:58  -3.87  -1.99   -25.728599    3             
iter:   5  13:27:59  -4.09  -2.14   -25.725924    3             
iter:   6  13:28:01  -3.48  -2.22   -25.723432    3             
iter:   7  13:28:02  -3.94  -2.39   -25.723050    3             
iter:   8  13:28:03  -4.86  -2.53   -25.722004    3             
iter:   9  13:28:04  -4.94  -2.87   -25.721884    3             
iter:  10  13:28:05  -5.61  -3.11   -25.721870    3             
iter:  11  13:28:06  -6.18  -3.24   -25.721895    2             
iter:  12  13:28:07  -6.97  -3.34   -25.721907    2             
iter:  13  13:28:09  -6.42  -3.35   -25.721906    2             
iter:  14  13:28:10  -6.69  -3.44   -25.721894    2             
iter:  15  13:28:11  -7.14  -3.59   -25.721885    2             
iter:  16  13:28:12  -7.62  -3.74   -25.721883    2             
iter:  17  13:28:13  -7.69  -3.85   -25.721881    2             
iter:  18  13:28:14  -8.01  -4.05   -25.721879    2             

Converged after 18 iterations.

Dipole moment: (-0.040969, -0.023653, -0.090830) |e|*Ang

Energy contributions relative to reference atoms: (reference = -22878.750211)

Kinetic:        +28.227944
Potential:      -25.165752
External:        +0.000000
XC:             -28.972221
Entropy (-ST):   -0.060859
Local:           +0.218579
--------------------------
Free energy:    -25.752308
Extrapolated:   -25.721879

Fermi level: -0.55390

Showing only first 2 kpts
 Kpt  Band  Eigenvalues  Occupancy
  0     7     -5.20006    0.06250
  0     8     -1.71508    0.06250
  0     9      2.01638    0.00000
  0    10      2.87769    0.00000

  1     7     -5.37487    0.06250
  1     8     -1.87255    0.06250
  1     9      1.88277    0.00000
  1    10      3.24811    0.00000


No gap

Forces in eV/Ang:
  0 Al   -0.00000    0.00000   -0.20126
  1 Al    0.00000    0.00000   -0.09610
  2 Al   -0.00000    0.00000   -0.32126
  3 C     0.00000    0.00000    0.74731
  4 O     0.00000    0.00000   -0.13001

System changes: positions 

Initializing position-dependent things.

Density initialized from wave functions
                    
                    
                    
                    
       O            
                    
       C            
                    
       Al           
                    
        Al          
                    
                    
           Al       
                    
                    
                    
                    

Positions:
   0 Al     1.430477    0.825886    9.987757    ( 0.0000,  0.0000,  0.0000)
   1 Al    -0.000000    1.651773   12.330471    ( 0.0000,  0.0000,  0.0000)
   2 Al    -0.000000    0.000000   14.665238    ( 0.0000,  0.0000,  0.0000)
   3 C      0.000000    0.000000   16.621205    ( 0.0000,  0.0000,  0.0000)
   4 O     -0.000000    0.000000   17.777030    ( 0.0000,  0.0000,  0.0000)

Unit cell:
           periodic     x           y           z      points  spacing
  1. axis:    yes    2.860954    0.000000    0.000000    20     0.1239
  2. axis:    yes    1.430477    2.477659    0.000000    20     0.1239
  3. axis:    no     0.000000    0.000000   24.671918   160     0.1542

  Lengths:   2.860954   2.860954  24.671918
  Angles:   90.000000  90.000000  60.000000

Effective grid spacing dv^(1/3) = 0.1398

                     log10-error:    total        iterations:
           time      wfs    density  energy       fermi  poisson
iter:   1  13:28:16  -3.39   +inf   -25.728454    3             
iter:   2  13:28:17  -4.81  -2.52   -25.727343    3             
iter:   3  13:28:18  -5.42  -2.71   -25.727036    3             
iter:   4  13:28:19  -5.70  -2.86   -25.726863    3             
iter:   5  13:28:21  -5.53  -2.98   -25.726721    2             
iter:   6  13:28:22  -5.58  -3.24   -25.726682    3             
iter:   7  13:28:23  -6.34  -3.38   -25.726695    2             
iter:   8  13:28:24  -7.59  -3.58   -25.726697    2             
iter:   9  13:28:25  -6.95  -3.64   -25.726699    2             
iter:  10  13:28:26  -7.38  -3.92   -25.726702    2             
iter:  11  13:28:27  -8.09  -4.14   -25.726702    2             

Converged after 11 iterations.

Dipole moment: (-0.040994, -0.023668, -0.088691) |e|*Ang

Energy contributions relative to reference atoms: (reference = -22878.750211)

Kinetic:        +28.290338
Potential:      -25.227005
External:        +0.000000
XC:             -28.982162
Entropy (-ST):   -0.060821
Local:           +0.222538
--------------------------
Free energy:    -25.757112
Extrapolated:   -25.726702

Fermi level: -0.53859

Showing only first 2 kpts
 Kpt  Band  Eigenvalues  Occupancy
  0     7     -5.19518    0.06250
  0     8     -1.71408    0.06250
  0     9      2.01656    0.00000
  0    10      2.90234    0.00000

  1     7     -5.37034    0.06250
  1     8     -1.87195    0.06250
  1     9      1.88064    0.00000
  1    10      3.27471    0.00000


No gap

Forces in eV/Ang:
  0 Al    0.00000    0.00000   -0.19740
  1 Al    0.00000    0.00000   -0.10394
  2 Al    0.00000    0.00000   -0.22536
  3 C    -0.00000    0.00000    0.40520
  4 O     0.00000    0.00000    0.12844

System changes: positions 

Initializing position-dependent things.

Density initialized from wave functions
                    
                    
                    
                    
       O            
                    
       C            
                    
       Al           
                    
                    
        Al          
                    
                    
           Al       
                    
                    
                    
                    

Positions:
   0 Al     1.430477    0.825886    9.972729    ( 0.0000,  0.0000,  0.0000)
   1 Al    -0.000000    1.651773   12.322705    ( 0.0000,  0.0000,  0.0000)
   2 Al    -0.000000    0.000000   14.650161    ( 0.0000,  0.0000,  0.0000)
   3 C      0.000000    0.000000   16.642026    ( 0.0000,  0.0000,  0.0000)
   4 O     -0.000000    0.000000   17.794450    ( 0.0000,  0.0000,  0.0000)

Unit cell:
           periodic     x           y           z      points  spacing
  1. axis:    yes    2.860954    0.000000    0.000000    20     0.1239
  2. axis:    yes    1.430477    2.477659    0.000000    20     0.1239
  3. axis:    no     0.000000    0.000000   24.671918   160     0.1542

  Lengths:   2.860954   2.860954  24.671918
  Angles:   90.000000  90.000000  60.000000

Effective grid spacing dv^(1/3) = 0.1398

                     log10-error:    total        iterations:
           time      wfs    density  energy       fermi  poisson
iter:   1  13:28:29  -2.15   +inf   -25.762171    3             
iter:   2  13:28:30  -3.61  -1.84   -25.746525    3             
iter:   3  13:28:31  -4.58  -2.10   -25.739750    3             
iter:   4  13:28:32  -4.40  -2.40   -25.738286    3             
iter:   5  13:28:34  -4.72  -2.53   -25.737810    2             
iter:   6  13:28:35  -5.46  -2.76   -25.737684    3             
iter:   7  13:28:36  -5.03  -2.87   -25.737663    3             
iter:   8  13:28:37  -6.16  -3.09   -25.737672    2             
iter:   9  13:28:38  -5.59  -3.10   -25.737665    3             
iter:  10  13:28:39  -6.67  -3.57   -25.737666    2             
iter:  11  13:28:40  -7.28  -3.72   -25.737673    2             
iter:  12  13:28:42  -8.01  -3.80   -25.737674    2             
iter:  13  13:28:43  -7.31  -3.84   -25.737675    2             
iter:  14  13:28:44  -7.59  -3.98   -25.737672    2             
iter:  15  13:28:45  -8.90  -4.45   -25.737672    1             

Converged after 15 iterations.

Dipole moment: (-0.041114, -0.023737, -0.084684) |e|*Ang

Energy contributions relative to reference atoms: (reference = -22878.750211)

Kinetic:        +27.723987
Potential:      -24.800929
External:        +0.000000
XC:             -28.848415
Entropy (-ST):   -0.060802
Local:           +0.218086
--------------------------
Free energy:    -25.768073
Extrapolated:   -25.737672

Fermi level: -0.49914

Showing only first 2 kpts
 Kpt  Band  Eigenvalues  Occupancy
  0     7     -5.19129    0.06250
  0     8     -1.73259    0.06250
  0     9      1.99161    0.00000
  0    10      2.96740    0.00000

  1     7     -5.36755    0.06250
  1     8     -1.89197    0.06250
  1     9      1.84802    0.00000
  1    10      3.34438    0.00000


No gap

Forces in eV/Ang:
  0 Al    0.00000    0.00000   -0.17205
  1 Al   -0.00000    0.00000   -0.14181
  2 Al   -0.00000    0.00000    0.11772
  3 C    -0.00000    0.00000   -0.21282
  4 O     0.00000    0.00000    0.41298

System changes: positions 

Initializing position-dependent things.

Density initialized from wave functions
                    
                    
                    
                    
       O            
                    
       C            
                    
       Al           
                    
                    
        Al          
                    
                    
           Al       
                    
                    
                    
                    

Positions:
   0 Al     1.430477    0.825886    9.963349    ( 0.0000,  0.0000,  0.0000)
   1 Al    -0.000000    1.651773   12.316930    ( 0.0000,  0.0000,  0.0000)
   2 Al    -0.000000    0.000000   14.645167    ( 0.0000,  0.0000,  0.0000)
   3 C      0.000000    0.000000   16.651684    ( 0.0000,  0.0000,  0.0000)
   4 O     -0.000000    0.000000   17.805085    ( 0.0000,  0.0000,  0.0000)

Unit cell:
           periodic     x           y           z      points  spacing
  1. axis:    yes    2.860954    0.000000    0.000000    20     0.1239
  2. axis:    yes    1.430477    2.477659    0.000000    20     0.1239
  3. axis:    no     0.000000    0.000000   24.671918   160     0.1542

  Lengths:   2.860954   2.860954  24.671918
  Angles:   90.000000  90.000000  60.000000

Effective grid spacing dv^(1/3) = 0.1398

                     log10-error:    total        iterations:
           time      wfs    density  energy       fermi  poisson
iter:   1  13:28:47  -2.71   +inf   -25.759492    3             
iter:   2  13:28:48  -4.00  -1.90   -25.747568    3             
iter:   3  13:28:49  -4.98  -2.14   -25.740927    3             
iter:   4  13:28:50  -5.49  -2.84   -25.740819    3             
iter:   5  13:28:51  -6.06  -3.07   -25.740801    2             
iter:   6  13:28:52  -5.81  -3.22   -25.740817    2             
iter:   7  13:28:54  -6.31  -3.34   -25.740819    2             
iter:   8  13:28:55  -7.13  -3.44   -25.740817    2             
iter:   9  13:28:56  -6.56  -3.53   -25.740806    2             
iter:  10  13:28:57  -7.82  -4.05   -25.740807    2             

Converged after 10 iterations.

Dipole moment: (-0.040922, -0.023626, -0.084682) |e|*Ang

Energy contributions relative to reference atoms: (reference = -22878.750211)

Kinetic:        +27.144379
Potential:      -24.354944
External:        +0.000000
XC:             -28.718060
Entropy (-ST):   -0.060743
Local:           +0.218189
--------------------------
Free energy:    -25.771178
Extrapolated:   -25.740807

Fermi level: -0.49234

Showing only first 2 kpts
 Kpt  Band  Eigenvalues  Occupancy
  0     7     -5.19872    0.06250
  0     8     -1.75335    0.06250
  0     9      1.96753    0.00000
  0    10      2.97994    0.00000

  1     7     -5.37540    0.06250
  1     8     -1.91335    0.06250
  1     9      1.82134    0.00000
  1    10      3.35762    0.00000


No gap

Forces in eV/Ang:
  0 Al    0.00000    0.00000   -0.16492
  1 Al    0.00000   -0.00000   -0.14965
  2 Al   -0.00000    0.00000    0.23862
  3 C    -0.00000    0.00000   -0.19287
  4 O     0.00000   -0.00000    0.27836

System changes: positions 

Initializing position-dependent things.

Density initialized from wave functions
                    
                    
                    
                    
       O            
                    
       C            
                    
       Al           
                    
                    
        Al          
                    
                    
           Al       
                    
                    
                    
                    

Positions:
   0 Al     1.430477    0.825886    9.946234    ( 0.0000,  0.0000,  0.0000)
   1 Al    -0.000000    1.651773   12.305407    ( 0.0000,  0.0000,  0.0000)
   2 Al    -0.000000    0.000000   14.642604    ( 0.0000,  0.0000,  0.0000)
   3 C      0.000000    0.000000   16.666457    ( 0.0000,  0.0000,  0.0000)
   4 O     -0.000000    0.000000   17.821947    ( 0.0000,  0.0000,  0.0000)

Unit cell:
           periodic     x           y           z      points  spacing
  1. axis:    yes    2.860954    0.000000    0.000000    20     0.1239
  2. axis:    yes    1.430477    2.477659    0.000000    20     0.1239
  3. axis:    no     0.000000    0.000000   24.671918   160     0.1542

  Lengths:   2.860954   2.860954  24.671918
  Angles:   90.000000  90.000000  60.000000

Effective grid spacing dv^(1/3) = 0.1398

                     log10-error:    total        iterations:
           time      wfs    density  energy       fermi  poisson
iter:   1  13:28:59  -2.32   +inf   -25.779898    3             
iter:   2  13:29:00  -3.67  -1.77   -25.758147    2             
iter:   3  13:29:01  -4.65  -1.99   -25.744974    3             
iter:   4  13:29:02  -5.36  -2.73   -25.744881    3             
iter:   5  13:29:03  -5.62  -2.89   -25.744890    3             
iter:   6  13:29:04  -5.38  -3.02   -25.744945    3             
iter:   7  13:29:05  -5.78  -3.11   -25.744857    3             
iter:   8  13:29:07  -7.01  -3.43   -25.744854    2             
iter:   9  13:29:08  -7.89  -3.51   -25.744854    2             
iter:  10  13:29:09  -6.92  -3.57   -25.744865    2             
iter:  11  13:29:10  -7.42  -3.85   -25.744866    2             
iter:  12  13:29:11  -8.12  -4.08   -25.744865    2             

Converged after 12 iterations.

Dipole moment: (-0.040176, -0.023195, -0.085789) |e|*Ang

Energy contributions relative to reference atoms: (reference = -22878.750211)

Kinetic:        +26.237708
Potential:      -23.660336
External:        +0.000000
XC:             -28.510817
Entropy (-ST):   -0.060433
Local:           +0.218797
--------------------------
Free energy:    -25.775081
Extrapolated:   -25.744865

Fermi level: -0.48649

Showing only first 2 kpts
 Kpt  Band  Eigenvalues  Occupancy
  0     7     -5.21454    0.06250
  0     8     -1.79075    0.06250
  0     9      1.92476    0.00000
  0    10      2.99159    0.00000

  1     7     -5.39173    0.06250
  1     8     -1.95157    0.06250
  1     9      1.77569    0.00000
  1    10      3.36971    0.00000


No gap

Forces in eV/Ang:
  0 Al    0.00000    0.00000   -0.14480
  1 Al    0.00000    0.00000   -0.14189
  2 Al    0.00000    0.00000    0.34232
  3 C     0.00000    0.00000   -0.05749
  4 O     0.00000    0.00000    0.02111

System changes: positions 

Initializing position-dependent things.

Density initialized from wave functions
                    
                    
                    
                    
       O            
                    
       C            
                    
       Al           
                    
                    
        Al          
                    
                    
           Al       
                    
                    
                    
                    

Positions:
   0 Al     1.430477    0.825886    9.923560    ( 0.0000,  0.0000,  0.0000)
   1 Al    -0.000000    1.651773   12.289212    ( 0.0000,  0.0000,  0.0000)
   2 Al    -0.000000    0.000000   14.646357    ( 0.0000,  0.0000,  0.0000)
   3 C      0.000000    0.000000   16.683560    ( 0.0000,  0.0000,  0.0000)
   4 O     -0.000000    0.000000   17.840862    ( 0.0000,  0.0000,  0.0000)

Unit cell:
           periodic     x           y           z      points  spacing
  1. axis:    yes    2.860954    0.000000    0.000000    20     0.1239
  2. axis:    yes    1.430477    2.477659    0.000000    20     0.1239
  3. axis:    no     0.000000    0.000000   24.671918   160     0.1542

  Lengths:   2.860954   2.860954  24.671918
  Angles:   90.000000  90.000000  60.000000

Effective grid spacing dv^(1/3) = 0.1398

                     log10-error:    total        iterations:
           time      wfs    density  energy       fermi  poisson
iter:   1  13:29:13  -2.21   +inf   -25.769616    3             
iter:   2  13:29:14  -3.68  -1.90   -25.756984    3             
iter:   3  13:29:15  -4.69  -2.10   -25.749757    3             
iter:   4  13:29:16  -5.10  -2.62   -25.749515    3             
iter:   5  13:29:17  -5.29  -2.85   -25.749553    2             
iter:   6  13:29:19  -5.86  -2.90   -25.749542    3             
iter:   7  13:29:20  -5.20  -3.04   -25.749536    3             
iter:   8  13:29:21  -6.80  -3.35   -25.749537    2             
iter:   9  13:29:22  -6.42  -3.38   -25.749516    3             
iter:  10  13:29:23  -7.22  -3.84   -25.749516    2             
iter:  11  13:29:24  -7.80  -3.93   -25.749514    2             
iter:  12  13:29:25  -8.29  -4.00   -25.749513    2             
iter:  13  13:29:27  -7.68  -4.05   -25.749516    2             

Converged after 13 iterations.

Dipole moment: (-0.038755, -0.022375, -0.087111) |e|*Ang

Energy contributions relative to reference atoms: (reference = -22878.750211)

Kinetic:        +25.341024
Potential:      -22.983595
External:        +0.000000
XC:             -28.296807
Entropy (-ST):   -0.059906
Local:           +0.219815
--------------------------
Free energy:    -25.779469
Extrapolated:   -25.749516

Fermi level: -0.48073

Showing only first 2 kpts
 Kpt  Band  Eigenvalues  Occupancy
  0     7     -5.23507    0.06250
  0     8     -1.83553    0.06250
  0     9      1.87382    0.00000
  0    10      3.00279    0.00000

  1     7     -5.41266    0.06250
  1     8     -1.99719    0.06250
  1     9      1.72256    0.00000
  1    10      3.38116    0.00000


No gap

Forces in eV/Ang:
  0 Al    0.00000    0.00000   -0.11689
  1 Al    0.00000    0.00000   -0.11277
  2 Al   -0.00000    0.00000    0.38553
  3 C     0.00000   -0.00000    0.05288
  4 O     0.00000   -0.00000   -0.19540

System changes: positions 

Initializing position-dependent things.

Density initialized from wave functions
                    
                    
                    
                    
       O            
                    
       C            
                    
       Al           
                    
                    
        Al          
                    
                    
           Al       
                    
                    
                    
                    

Positions:
   0 Al     1.430477    0.825886    9.893932    ( 0.0000,  0.0000,  0.0000)
   1 Al    -0.000000    1.651773   12.267125    ( 0.0000,  0.0000,  0.0000)
   2 Al    -0.000000    0.000000   14.660413    ( 0.0000,  0.0000,  0.0000)
   3 C      0.000000   -0.000000   16.702396    ( 0.0000,  0.0000,  0.0000)
   4 O     -0.000000    0.000000   17.860945    ( 0.0000,  0.0000,  0.0000)

Unit cell:
           periodic     x           y           z      points  spacing
  1. axis:    yes    2.860954    0.000000    0.000000    20     0.1239
  2. axis:    yes    1.430477    2.477659    0.000000    20     0.1239
  3. axis:    no     0.000000    0.000000   24.671918   160     0.1542

  Lengths:   2.860954   2.860954  24.671918
  Angles:   90.000000  90.000000  60.000000

Effective grid spacing dv^(1/3) = 0.1398

                     log10-error:    total        iterations:
           time      wfs    density  energy       fermi  poisson
iter:   1  13:29:28  -2.14   +inf   -25.766599    3             
iter:   2  13:29:29  -3.65  -2.04   -25.759154    3             
iter:   3  13:29:30  -4.60  -2.24   -25.757236    3             
iter:   4  13:29:32  -4.92  -2.47   -25.756410    3             
iter:   5  13:29:33  -4.94  -2.71   -25.756306    2             
iter:   6  13:29:34  -5.19  -2.88   -25.756397    3             
iter:   7  13:29:35  -5.30  -3.02   -25.756354    3             
iter:   8  13:29:36  -6.71  -3.31   -25.756349    2             
iter:   9  13:29:37  -6.37  -3.35   -25.756323    2             
iter:  10  13:29:38  -7.42  -3.82   -25.756323    2             
iter:  11  13:29:40  -8.16  -3.97   -25.756322    2             
iter:  12  13:29:41  -8.55  -4.04   -25.756321    2             

Converged after 12 iterations.

Dipole moment: (-0.036411, -0.021022, -0.088924) |e|*Ang

Energy contributions relative to reference atoms: (reference = -22878.750211)

Kinetic:        +24.479383
Potential:      -22.339374
External:        +0.000000
XC:             -28.087317
Entropy (-ST):   -0.059117
Local:           +0.220546
--------------------------
Free energy:    -25.785880
Extrapolated:   -25.756321

Fermi level: -0.47772

Showing only first 2 kpts
 Kpt  Band  Eigenvalues  Occupancy
  0     7     -5.26262    0.06250
  0     8     -1.88871    0.06250
  0     9      1.81471    0.00000
  0    10      3.00914    0.00000

  1     7     -5.44031    0.06250
  1     8     -2.05114    0.06250
  1     9      1.66229    0.00000
  1    10      3.38793    0.00000


No gap

Forces in eV/Ang:
  0 Al    0.00000    0.00000   -0.09695
  1 Al    0.00000    0.00000   -0.04770
  2 Al   -0.00000    0.00000    0.33717
  3 C     0.00000    0.00000    0.16261
  4 O     0.00000    0.00000   -0.33529

System changes: positions 

Initializing position-dependent things.

Density initialized from wave functions
                    
                    
                    
                    
       O            
                    
       C            
                    
       Al           
                    
                    
        Al          
                    
                    
           Al       
                    
                    
                    
                    

Positions:
   0 Al     1.430477    0.825886    9.853932    ( 0.0000,  0.0000,  0.0000)
   1 Al     0.000000    1.651773   12.237777    ( 0.0000,  0.0000,  0.0000)
   2 Al    -0.000000    0.000000   14.687941    ( 0.0000,  0.0000,  0.0000)
   3 C      0.000000   -0.000000   16.724554    ( 0.0000,  0.0000,  0.0000)
   4 O     -0.000000    0.000000   17.882771    ( 0.0000,  0.0000,  0.0000)

Unit cell:
           periodic     x           y           z      points  spacing
  1. axis:    yes    2.860954    0.000000    0.000000    20     0.1239
  2. axis:    yes    1.430477    2.477659    0.000000    20     0.1239
  3. axis:    no     0.000000    0.000000   24.671918   160     0.1542

  Lengths:   2.860954   2.860954  24.671918
  Angles:   90.000000  90.000000  60.000000

Effective grid spacing dv^(1/3) = 0.1398

                     log10-error:    total        iterations:
           time      wfs    density  energy       fermi  poisson
iter:   1  13:29:42  -1.99   +inf   -25.798206    4             
iter:   2  13:29:44  -3.42  -1.76   -25.773134    3             
iter:   3  13:29:45  -4.39  -2.05   -25.766469    3             
iter:   4  13:29:46  -4.49  -2.21   -25.764130    3             
iter:   5  13:29:47  -4.56  -2.55   -25.763656    3             
iter:   6  13:29:48  -5.09  -2.70   -25.763851    3             
iter:   7  13:29:49  -4.93  -2.77   -25.763656    3             
iter:   8  13:29:50  -6.46  -3.15   -25.763655    2             
iter:   9  13:29:52  -6.19  -3.19   -25.763635    2             
iter:  10  13:29:53  -7.29  -3.60   -25.763639    2             
iter:  11  13:29:54  -7.38  -3.66   -25.763631    2             
iter:  12  13:29:55  -7.69  -3.80   -25.763627    2             
iter:  13  13:29:56  -7.34  -3.92   -25.763616    2             
iter:  14  13:29:57  -8.27  -4.28   -25.763616    2             

Converged after 14 iterations.

Dipole moment: (-0.033098, -0.019109, -0.090412) |e|*Ang

Energy contributions relative to reference atoms: (reference = -22878.750211)

Kinetic:        +23.817289
Potential:      -21.868409
External:        +0.000000
XC:             -27.904928
Entropy (-ST):   -0.058063
Local:           +0.221464
--------------------------
Free energy:    -25.792648
Extrapolated:   -25.763616

Fermi level: -0.47291

Showing only first 2 kpts
 Kpt  Band  Eigenvalues  Occupancy
  0     7     -5.29676    0.06250
  0     8     -1.95005    0.06250
  0     9      1.74661    0.00000
  0    10      3.01541    0.00000

  1     7     -5.47429    0.06250
  1     8     -2.11323    0.06250
  1     9      1.59393    0.00000
  1    10      3.39529    0.00000


No gap

Forces in eV/Ang:
  0 Al    0.00000   -0.00000   -0.06702
  1 Al    0.00000    0.00000    0.03365
  2 Al    0.00000    0.00000    0.20407
  3 C    -0.00000   -0.00000    0.13011
  4 O    -0.00000    0.00000   -0.29180

System changes: positions 

Initializing position-dependent things.

Density initialized from wave functions
                    
                    
                    
                    
       O            
                    
       C            
                    
       Al           
                    
                    
        Al          
                    
                    
           Al       
                    
                    
                    
                    

Positions:
   0 Al     1.430477    0.825886    9.838798    ( 0.0000,  0.0000,  0.0000)
   1 Al     0.000000    1.651773   12.227581    ( 0.0000,  0.0000,  0.0000)
   2 Al    -0.000000    0.000000   14.706965    ( 0.0000,  0.0000,  0.0000)
   3 C      0.000000   -0.000000   16.728884    ( 0.0000,  0.0000,  0.0000)
   4 O     -0.000000    0.000000   17.885767    ( 0.0000,  0.0000,  0.0000)

Unit cell:
           periodic     x           y           z      points  spacing
  1. axis:    yes    2.860954    0.000000    0.000000    20     0.1239
  2. axis:    yes    1.430477    2.477659    0.000000    20     0.1239
  3. axis:    no     0.000000    0.000000   24.671918   160     0.1542

  Lengths:   2.860954   2.860954  24.671918
  Angles:   90.000000  90.000000  60.000000

Effective grid spacing dv^(1/3) = 0.1398

                     log10-error:    total        iterations:
           time      wfs    density  energy       fermi  poisson
iter:   1  13:29:59  -2.98   +inf   -25.808816    3             
iter:   2  13:30:00  -3.83  -1.73   -25.780094    3             
iter:   3  13:30:01  -4.99  -2.00   -25.767493    3             
iter:   4  13:30:02  -4.85  -2.45   -25.766755    3             
iter:   5  13:30:03  -5.21  -2.82   -25.766529    3             
iter:   6  13:30:05  -6.00  -2.94   -25.766568    2             
iter:   7  13:30:06  -5.46  -3.06   -25.766518    2             
iter:   8  13:30:07  -6.76  -3.53   -25.766520    2             
iter:   9  13:30:08  -7.18  -3.58   -25.766521    2             
iter:  10  13:30:09  -7.08  -3.74   -25.766533    2             
iter:  11  13:30:10  -8.27  -3.94   -25.766531    2             
iter:  12  13:30:11  -7.45  -4.02   -25.766527    2             

Converged after 12 iterations.

Dipole moment: (-0.031616, -0.018254, -0.090913) |e|*Ang

Energy contributions relative to reference atoms: (reference = -22878.750211)

Kinetic:        +23.944158
Potential:      -21.988064
External:        +0.000000
XC:             -27.915856
Entropy (-ST):   -0.057263
Local:           +0.221866
--------------------------
Free energy:    -25.795158
Extrapolated:   -25.766527

Fermi level: -0.47373

Showing only first 2 kpts
 Kpt  Band  Eigenvalues  Occupancy
  0     7     -5.30840    0.06250
  0     8     -1.96644    0.06250
  0     9      1.73005    0.00000
  0    10      3.00979    0.00000

  1     7     -5.48563    0.06250
  1     8     -2.12963    0.06250
  1     9      1.57857    0.00000
  1    10      3.39063    0.00000


No gap

Forces in eV/Ang:
  0 Al    0.00000    0.00000   -0.05186
  1 Al   -0.00000    0.00000    0.07372
  2 Al    0.00000   -0.00000    0.05524
  3 C     0.00000    0.00000    0.05222
  4 O     0.00000    0.00000   -0.12685

System changes: positions 

Initializing position-dependent things.

Density initialized from wave functions
                    
                    
                    
                    
       O            
                    
       C            
                    
       Al           
                    
                    
        Al          
                    
                    
           Al       
                    
                    
                    
                    

Positions:
   0 Al     1.430477    0.825886    9.841226    ( 0.0000,  0.0000,  0.0000)
   1 Al     0.000000    1.651773   12.231074    ( 0.0000,  0.0000,  0.0000)
   2 Al    -0.000000    0.000000   14.710831    ( 0.0000,  0.0000,  0.0000)
   3 C      0.000000   -0.000000   16.724425    ( 0.0000,  0.0000,  0.0000)
   4 O     -0.000000    0.000000   17.880440    ( 0.0000,  0.0000,  0.0000)

Unit cell:
           periodic     x           y           z      points  spacing
  1. axis:    yes    2.860954    0.000000    0.000000    20     0.1239
  2. axis:    yes    1.430477    2.477659    0.000000    20     0.1239
  3. axis:    no     0.000000    0.000000   24.671918   160     0.1542

  Lengths:   2.860954   2.860954  24.671918
  Angles:   90.000000  90.000000  60.000000

Effective grid spacing dv^(1/3) = 0.1398

                     log10-error:    total        iterations:
           time      wfs    density  energy       fermi  poisson
iter:   1  13:30:13  -3.33   +inf   -25.781021    3             
iter:   2  13:30:14  -4.32  -1.96   -25.772556    3             
iter:   3  13:30:15  -5.34  -2.20   -25.767193    2             
iter:   4  13:30:17  -6.29  -3.12   -25.767219    2             
iter:   5  13:30:18  -6.66  -3.29   -25.767191    2             
iter:   6  13:30:19  -6.45  -3.46   -25.767201    2             
iter:   7  13:30:20  -6.25  -3.63   -25.767191    2             
iter:   8  13:30:21  -7.49  -3.90   -25.767189    2             
iter:   9  13:30:22  -7.67  -3.92   -25.767190    2             
iter:  10  13:30:23  -7.78  -4.20   -25.767194    2             

Converged after 10 iterations.

Dipole moment: (-0.031664, -0.018281, -0.090676) |e|*Ang

Energy contributions relative to reference atoms: (reference = -22878.750211)

Kinetic:        +24.235079
Potential:      -22.214265
External:        +0.000000
XC:             -27.981308
Entropy (-ST):   -0.056946
Local:           +0.221772
--------------------------
Free energy:    -25.795667
Extrapolated:   -25.767194

Fermi level: -0.47565

Showing only first 2 kpts
 Kpt  Band  Eigenvalues  Occupancy
  0     7     -5.30575    0.06250
  0     8     -1.95799    0.06250
  0     9      1.73950    0.00000
  0    10      3.00486    0.00000

  1     7     -5.48284    0.06250
  1     8     -2.12095    0.06250
  1     9      1.58894    0.00000
  1    10      3.38598    0.00000


No gap

Forces in eV/Ang:
  0 Al   -0.00000    0.00000   -0.04912
  1 Al   -0.00000    0.00000    0.07235
  2 Al    0.00000   -0.00000   -0.00621
  3 C     0.00000    0.00000    0.00139
  4 O     0.00000   -0.00000   -0.02467

System changes: positions 

Initializing position-dependent things.

Density initialized from wave functions
                    
                    
                    
                    
       O            
                    
       C            
                    
       Al           
                    
                    
        Al          
                    
                    
           Al       
                    
                    
                    
                    

Positions:
   0 Al     1.430477    0.825886    9.846387    ( 0.0000,  0.0000,  0.0000)
   1 Al     0.000000    1.651773   12.237345    ( 0.0000,  0.0000,  0.0000)
   2 Al    -0.000000    0.000000   14.709710    ( 0.0000,  0.0000,  0.0000)
   3 C      0.000000   -0.000000   16.719315    ( 0.0000,  0.0000,  0.0000)
   4 O     -0.000000    0.000000   17.874873    ( 0.0000,  0.0000,  0.0000)

Unit cell:
           periodic     x           y           z      points  spacing
  1. axis:    yes    2.860954    0.000000    0.000000    20     0.1239
  2. axis:    yes    1.430477    2.477659    0.000000    20     0.1239
  3. axis:    no     0.000000    0.000000   24.671918   160     0.1542

  Lengths:   2.860954   2.860954  24.671918
  Angles:   90.000000  90.000000  60.000000

Effective grid spacing dv^(1/3) = 0.1398

                     log10-error:    total        iterations:
           time      wfs    density  energy       fermi  poisson
iter:   1  13:30:25  -3.29   +inf   -25.771933    2             
iter:   2  13:30:26  -4.60  -2.19   -25.769475    2             
iter:   3  13:30:27  -5.59  -2.42   -25.767460    2             
iter:   4  13:30:28  -6.00  -3.25   -25.767427    2             
iter:   5  13:30:30  -6.48  -3.43   -25.767416    2             
iter:   6  13:30:31  -6.60  -3.54   -25.767435    2             
iter:   7  13:30:32  -6.67  -3.65   -25.767416    2             
iter:   8  13:30:33  -8.02  -3.92   -25.767415    2             
iter:   9  13:30:34  -7.59  -3.98   -25.767411    2             
iter:  10  13:30:35  -8.92  -4.35   -25.767412    2             

Converged after 10 iterations.

Dipole moment: (-0.032092, -0.018528, -0.090282) |e|*Ang

Energy contributions relative to reference atoms: (reference = -22878.750211)

Kinetic:        +24.448407
Potential:      -22.374796
External:        +0.000000
XC:             -28.034055
Entropy (-ST):   -0.056843
Local:           +0.221453
--------------------------
Free energy:    -25.795833
Extrapolated:   -25.767412

Fermi level: -0.47728

Showing only first 2 kpts
 Kpt  Band  Eigenvalues  Occupancy
  0     7     -5.30117    0.06250
  0     8     -1.94670    0.06250
  0     9      1.75028    0.00000
  0    10      3.00129    0.00000

  1     7     -5.47820    0.06250
  1     8     -2.10944    0.06250
  1     9      1.60028    0.00000
  1    10      3.38239    0.00000


No gap

Forces in eV/Ang:
  0 Al    0.00000    0.00000   -0.05192
  1 Al   -0.00000    0.00000    0.05822
  2 Al    0.00000   -0.00000   -0.02294
  3 C     0.00000    0.00000   -0.02276
  4 O    -0.00000    0.00000    0.03010

System changes: positions 

Initializing position-dependent things.

Density initialized from wave functions
                    
                    
                    
                    
       O            
                    
       C            
                    
       Al           
                    
                    
        Al          
                    
                    
           Al       
                    
                    
                    
                    

Positions:
   0 Al     1.430477    0.825886    9.846453    ( 0.0000,  0.0000,  0.0000)
   1 Al     0.000000    1.651773   12.240396    ( 0.0000,  0.0000,  0.0000)
   2 Al    -0.000000    0.000000   14.708855    ( 0.0000,  0.0000,  0.0000)
   3 C      0.000000   -0.000000   16.718096    ( 0.0000,  0.0000,  0.0000)
   4 O     -0.000000    0.000000   17.873557    ( 0.0000,  0.0000,  0.0000)

Unit cell:
           periodic     x           y           z      points  spacing
  1. axis:    yes    2.860954    0.000000    0.000000    20     0.1239
  2. axis:    yes    1.430477    2.477659    0.000000    20     0.1239
  3. axis:    no     0.000000    0.000000   24.671918   160     0.1542

  Lengths:   2.860954   2.860954  24.671918
  Angles:   90.000000  90.000000  60.000000

Effective grid spacing dv^(1/3) = 0.1398

                     log10-error:    total        iterations:
           time      wfs    density  energy       fermi  poisson
iter:   1  13:30:37  -4.50   +inf   -25.768350    2             
iter:   2  13:30:38  -5.53  -2.54   -25.768073    2             
iter:   3  13:30:39  -6.47  -2.78   -25.767601    2             
iter:   4  13:30:40  -6.37  -3.39   -25.767590    2             
iter:   5  13:30:42  -7.49  -3.82   -25.767591    2             
iter:   6  13:30:43  -7.51  -3.97   -25.767596    2             
iter:   7  13:30:44  -7.55  -4.12   -25.767593    2             

Converged after 7 iterations.

Dipole moment: (-0.032313, -0.018656, -0.090495) |e|*Ang

Energy contributions relative to reference atoms: (reference = -22878.750211)

Kinetic:        +24.464108
Potential:      -22.384576
External:        +0.000000
XC:             -28.040545
Entropy (-ST):   -0.056777
Local:           +0.221808
--------------------------
Free energy:    -25.795982
Extrapolated:   -25.767593

Fermi level: -0.47586

Showing only first 2 kpts
 Kpt  Band  Eigenvalues  Occupancy
  0     7     -5.29975    0.06250
  0     8     -1.94351    0.06250
  0     9      1.74991    0.00000
  0    10      3.00233    0.00000

  1     7     -5.47677    0.06250
  1     8     -2.10621    0.06250
  1     9      1.59991    0.00000
  1    10      3.38348    0.00000


No gap

Forces in eV/Ang:
  0 Al    0.00000    0.00000   -0.03875
  1 Al   -0.00000    0.00000    0.04067
  2 Al    0.00000   -0.00000   -0.01751
  3 C     0.00000    0.00000   -0.01969
  4 O    -0.00000    0.00000    0.04211

Timing:                                      incl.     excl.
-------------------------------------------------------------------
Density initialized from wave functions:     2.538     2.100   0.7% |
 Symmetrize density:                         0.438     0.438   0.1% |
Forces:                                      5.571     5.571   1.9% ||
Hamiltonian:                                10.050     0.096   0.0% |
 Atomic:                                     1.241     1.241   0.4% |
  XC Correction:                             0.000     0.000   0.0% |
 Calculate atomic Hamiltonians:              0.537     0.537   0.2% |
 Communicate:                                0.001     0.001   0.0% |
 Initialize Hamiltonian:                     0.000     0.000   0.0% |
 Poisson:                                    0.027     0.027   0.0% |
 XC 3D grid:                                 8.148     8.148   2.7% ||
LCAO initialization:                         1.207     0.137   0.0% |
 LCAO eigensolver:                           0.383     0.000   0.0% |
  Calculate projections:                     0.000     0.000   0.0% |
  DenseAtomicCorrection:                     0.000     0.000   0.0% |
  Distribute overlap matrix:                 0.000     0.000   0.0% |
  Orbital Layouts:                           0.001     0.001   0.0% |
  Potential matrix:                          0.381     0.381   0.1% |
  Sum over cells:                            0.001     0.001   0.0% |
 LCAO to grid:                               0.550     0.550   0.2% |
 Set positions (LCAO WFS):                   0.136     0.027   0.0% |
  Basic WFS set positions:                   0.001     0.001   0.0% |
  Basis functions set positions:             0.000     0.000   0.0% |
  P tci:                                     0.035     0.035   0.0% |
  ST tci:                                    0.045     0.045   0.0% |
  mktci:                                     0.027     0.027   0.0% |
PWDescriptor:                                0.013     0.013   0.0% |
Redistribute:                                0.011     0.011   0.0% |
SCF-cycle:                                 274.624     0.777   0.3% |
 Davidson:                                  96.884    16.663   5.6% |-|
  Apply H:                                  17.807    17.374   5.8% |-|
   HMM T:                                    0.433     0.433   0.1% |
  Subspace diag:                            19.925     0.061   0.0% |
   calc_h_matrix:                           18.543     0.670   0.2% |
    Apply H:                                17.873    17.397   5.8% |-|
     HMM T:                                  0.476     0.476   0.2% |
   diagonalize:                              0.115     0.115   0.0% |
   rotate_psi:                               1.206     1.206   0.4% |
  calc. matrices:                           39.940     4.363   1.5% ||
   Apply H:                                 35.577    34.676  11.6% |----|
    HMM T:                                   0.901     0.901   0.3% |
  diagonalize:                               0.417     0.417   0.1% |
  rotate_psi:                                2.131     2.131   0.7% |
 Density:                                   38.218     0.005   0.0% |
  Atomic density matrices:                   0.285     0.285   0.1% |
  Mix:                                      20.266    20.266   6.8% |--|
  Multipole moments:                         0.041     0.041   0.0% |
  Pseudo density:                           17.621    11.212   3.8% |-|
   Symmetrize density:                       6.409     6.409   2.1% ||
 Hamiltonian:                              138.426     1.324   0.4% |
  Atomic:                                   16.212    16.211   5.4% |-|
   XC Correction:                            0.001     0.001   0.0% |
  Calculate atomic Hamiltonians:             7.566     7.566   2.5% ||
  Communicate:                               0.016     0.016   0.0% |
  Poisson:                                   0.394     0.394   0.1% |
  XC 3D grid:                              112.914   112.914  37.8% |--------------|
 Orthonormalize:                             0.319     0.004   0.0% |
  calc_s_matrix:                             0.031     0.031   0.0% |
  inverse-cholesky:                          0.007     0.007   0.0% |
  projections:                               0.237     0.237   0.1% |
  rotate_psi_s:                              0.041     0.041   0.0% |
Set symmetry:                                0.005     0.005   0.0% |
Other:                                       4.409     4.409   1.5% ||
-------------------------------------------------------------------
Total:                                               298.428 100.0%

Memory usage: 206.93 MiB
Date: Mon Dec  9 13:30:44 2019
