
  ___ ___ ___ _ _ _  
 |   |   |_  | | | | 
 | | | | | . | | | | 
 |__ |  _|___|_____|  19.8.1
 |___|_|             

User:   fadjar@cn0015
Date:   Mon Dec  9 11:30:23 2019
Arch:   x86_64
Pid:    14612
Python: 3.7.3
gpaw:   /app/anaconda3/lib/python3.7/site-packages/gpaw
_gpaw:  /app/anaconda3/bin/gpaw-python
ase:    /app/anaconda3/lib/python3.7/site-packages/ase-3.18.0-py3.7.egg/ase (version 3.18.0)
numpy:  /app/anaconda3/lib/python3.7/site-packages/numpy (version 1.16.4)
scipy:  /app/anaconda3/lib/python3.7/site-packages/scipy (version 1.3.0)
libxc:  4.3.4
units:  Angstrom and eV
cores:  20

Input parameters:
  kpts: [6 6 1]
  mode: {ecut: 750.0,
         gammacentered: False,
         name: pw}
  xc: PBE

System changes: positions, numbers, cell, pbc, initial_charges, initial_magmoms 

Initialize ...

Al-setup:
  name: Aluminium
  id: 0292cae29f5d6237e50f6abdd43a7bdd
  Z: 13
  valence: 3
  core: 10
  charge: 0.0
  file: /app/gpaw-setups-0.9.20000/Al.PBE.gz
  compensation charges: gauss, rc=0.34, lmax=2
  cutoffs: 1.91(filt), 2.36(core),
  valence states:
                energy  radius
    3s(2.00)    -7.753   1.085
    3p(1.00)    -2.712   1.085
    *s          19.459   1.085
    *p          24.499   1.085
    *d           0.000   1.085

  Using partial waves for Al as LCAO basis

C-setup:
  name: Carbon
  id: 4aa54d4b901d75f77cc0ea3eec22967b
  Z: 6
  valence: 4
  core: 2
  charge: 0.0
  file: /app/gpaw-setups-0.9.20000/C.PBE.gz
  compensation charges: gauss, rc=0.20, lmax=2
  cutoffs: 1.14(filt), 1.14(core),
  valence states:
                energy  radius
    2s(2.00)   -13.751   0.635
    2p(2.00)    -5.284   0.635
    *s          13.461   0.635
    *p          21.927   0.635
    *d           0.000   0.635

  Using partial waves for C as LCAO basis

O-setup:
  name: Oxygen
  id: 32ecd46bf208036f09c70b0ec9a88b78
  Z: 8
  valence: 6
  core: 2
  charge: 0.0
  file: /app/gpaw-setups-0.9.20000/O.PBE.gz
  compensation charges: gauss, rc=0.21, lmax=2
  cutoffs: 1.17(filt), 0.83(core),
  valence states:
                energy  radius
    2s(2.00)   -23.961   0.688
    2p(4.00)    -9.029   0.598
    *s           3.251   0.688
    *p          18.182   0.598
    *d           0.000   0.619

  Using partial waves for O as LCAO basis

Reference energy: -22878.750211

Spin-paired calculation

Occupation numbers:
  Fermi-Dirac: width=0.1000 eV

Convergence criteria:
  Maximum total energy change: 0.0005 eV / electron
  Maximum integral of absolute density change: 0.0001 electrons
  Maximum integral of absolute eigenstate change: 4e-08 eV^2
  Maximum number of iterations: 333

Symmetries present (total): 6

  ( 1  0  0)  ( 1 -1  0)  ( 0  1  0)  ( 0 -1  0)  (-1  1  0)  (-1  0  0)
  ( 0  1  0)  ( 0 -1  0)  ( 1  0  0)  ( 1 -1  0)  (-1  0  0)  (-1  1  0)
  ( 0  0  1)  ( 0  0  1)  ( 0  0  1)  ( 0  0  1)  ( 0  0  1)  ( 0  0  1)
Note: your k-points are not as symmetric as your crystal!

36 k-points: 6 x 6 x 1 Monkhorst-Pack grid
12 k-points in the irreducible part of the Brillouin zone
       k-points in crystal coordinates                weights
   0:     0.08333333   -0.08333333    0.00000000          2/36
   1:     0.08333333    0.08333333    0.00000000          2/36
   2:     0.25000000   -0.25000000    0.00000000          2/36
   3:     0.25000000   -0.08333333    0.00000000          4/36
   4:     0.25000000    0.08333333    0.00000000          4/36
   5:     0.25000000    0.25000000    0.00000000          2/36
   6:     0.41666667   -0.41666667    0.00000000          2/36
   7:     0.41666667   -0.25000000    0.00000000          4/36
   8:     0.41666667   -0.08333333    0.00000000          4/36
   9:     0.41666667    0.08333333    0.00000000          4/36
          ...
  11:     0.41666667    0.41666667    0.00000000          2/36

Wave functions: Plane wave expansion
  Cutoff energy: 750.000 eV
  Number of coefficients (min, max): 8107, 8213
  Pulay-stress correction: 0.000000 eV/Ang^3 (de/decut=0.000000)
  Using Numpy's FFT
  ScaLapack parameters: grid=1x1, blocksize=None
  Wavefunction extrapolation:
    Improved wavefunction reuse through dual PAW basis 

Eigensolver
   Davidson(niter=2, smin=None, normalize=True) 

Densities:
  Coarse grid: 20*20*160 grid
  Fine grid: 40*40*320 grid
  Total Charge: 0.000000 

Density mixing:
  Method: separate
  Backend: pulay
  Linear mixing parameter: 0.05
  Mixing with 5 old densities
  Damping of long wave oscillations: 50 

Hamiltonian:
  XC and Coulomb potentials evaluated on a 40*40*320 grid
  Using the PBE Exchange-Correlation functional
 

XC parameters: PBE with 2 nearest neighbor stencil

Memory estimate:
  Process memory now: 92.45 MiB
  Calculator: 20.04 MiB
    Density: 6.12 MiB
      Arrays: 2.54 MiB
      Localized functions: 2.60 MiB
      Mixer: 0.98 MiB
    Hamiltonian: 1.73 MiB
      Arrays: 1.66 MiB
      XC: 0.00 MiB
      Poisson: 0.00 MiB
      vbar: 0.07 MiB
    Wavefunctions: 12.19 MiB
      Arrays psit_nG: 6.02 MiB
      Eigensolver: 2.67 MiB
      Projections: 0.01 MiB
      Projectors: 0.90 MiB
      PW-descriptor: 2.59 MiB

Total number of cores used: 20
Parallelization over k-points: 4
Domain decomposition: 1 x 1 x 5

Number of atoms: 5
Number of atomic orbitals: 20
Number of bands in calculation: 16
Bands to converge: occupied states only
Number of valence electrons: 19

... initialized

Initializing position-dependent things.

Density initialized from atomic densities
Creating initial wave functions:
  16 bands from LCAO basis set

                    
                    
                    
                    
       O            
                    
       C            
                    
                    
       Al           
                    
        Al          
                    
                    
           Al       
                    
                    
                    
                    

Positions:
   0 Al     1.430477    0.825886   10.000000    ( 0.0000,  0.0000,  0.0000)
   1 Al     0.000000    1.651773   12.335959    ( 0.0000,  0.0000,  0.0000)
   2 Al     0.000000    0.000000   14.671918    ( 0.0000,  0.0000,  0.0000)
   3 C      0.000000    0.000000   16.471918    ( 0.0000,  0.0000,  0.0000)
   4 O      0.000000    0.000000   17.901918    ( 0.0000,  0.0000,  0.0000)

Unit cell:
           periodic     x           y           z      points  spacing
  1. axis:    yes    2.860954    0.000000    0.000000    20     0.1239
  2. axis:    yes    1.430477    2.477659    0.000000    20     0.1239
  3. axis:    no     0.000000    0.000000   24.671918   160     0.1542

  Lengths:   2.860954   2.860954  24.671918
  Angles:   90.000000  90.000000  60.000000

Effective grid spacing dv^(1/3) = 0.1398

                     log10-error:    total        iterations:
           time      wfs    density  energy       fermi  poisson
iter:   1  11:30:26  +0.86   +inf   -26.079299    3             
iter:   2  11:30:26  -0.99  -0.71   -25.441742    3             
iter:   3  11:30:27  -2.38  -0.83   -23.633039    3             
iter:   4  11:30:27  -3.02  -0.97   -23.589335    3             
iter:   5  11:30:28  -1.24  -0.99   -23.839004    32            
iter:   6  11:30:28  -1.51  -1.08   -23.471190    30            
iter:   7  11:30:29  -2.39  -1.35   -23.389102    3             
iter:   8  11:30:30  -3.12  -1.53   -23.342700    5             
iter:   9  11:30:30  -3.54  -1.72   -23.340218    4             
iter:  10  11:30:31  -3.11  -1.78   -23.327363    4             
iter:  11  11:30:31  -4.30  -2.06   -23.326474    3             
iter:  12  11:30:32  -3.90  -2.13   -23.323776    3             
iter:  13  11:30:32  -4.19  -2.49   -23.323488    3             
iter:  14  11:30:33  -5.05  -2.69   -23.323298    2             
iter:  15  11:30:33  -5.60  -2.85   -23.323235    3             
iter:  16  11:30:34  -5.04  -2.97   -23.323155    3             
iter:  17  11:30:35  -6.01  -3.23   -23.323151    3             
iter:  18  11:30:35  -6.29  -3.31   -23.323146    3             
iter:  19  11:30:36  -6.54  -3.43   -23.323153    2             
iter:  20  11:30:36  -6.82  -3.52   -23.323155    2             
iter:  21  11:30:37  -7.34  -3.58   -23.323155    2             
iter:  22  11:30:37  -6.78  -3.63   -23.323153    2             
iter:  23  11:30:38  -7.55  -4.01   -23.323154    2             

Converged after 23 iterations.

Dipole moment: (-0.044929, -0.025940, -0.230877) |e|*Ang

Energy contributions relative to reference atoms: (reference = -22878.750211)

Kinetic:        +14.358926
Potential:      -13.041662
External:        +0.000000
XC:             -24.832889
Entropy (-ST):   -0.076001
Local:           +0.230470
--------------------------
Free energy:    -23.361155
Extrapolated:   -23.323154

Fermi level: -1.41576

Showing only first 2 kpts
 Kpt  Band  Eigenvalues  Occupancy
  0     7     -3.12052    0.11111
  0     8     -2.01065    0.11082
  0     9      1.04800    0.00000
  0    10      1.81331    0.00000

  1     7     -3.02098    0.11111
  1     8     -2.25828    0.11109
  1     9      1.39514    0.00000
  1    10      1.78758    0.00000


No gap
Timing:                              incl.     excl.
-----------------------------------------------------------
Hamiltonian:                         0.205     0.006   0.0% |
 Atomic:                             0.000     0.000   0.0% |
  XC Correction:                     0.000     0.000   0.0% |
 Calculate atomic Hamiltonians:      0.012     0.012   0.1% |
 Communicate:                        0.069     0.069   0.5% |
 Initialize Hamiltonian:             0.000     0.000   0.0% |
 Poisson:                            0.001     0.001   0.0% |
 XC 3D grid:                         0.116     0.116   0.8% |
LCAO initialization:                 0.822     0.137   0.9% |
 LCAO eigensolver:                   0.196     0.000   0.0% |
  Calculate projections:             0.000     0.000   0.0% |
  DenseAtomicCorrection:             0.000     0.000   0.0% |
  Distribute overlap matrix:         0.195     0.195   1.3% ||
  Orbital Layouts:                   0.001     0.001   0.0% |
  Potential matrix:                  0.000     0.000   0.0% |
  Sum over cells:                    0.000     0.000   0.0% |
 LCAO to grid:                       0.400     0.400   2.6% ||
 Set positions (LCAO WFS):           0.089     0.046   0.3% |
  Basic WFS set positions:           0.001     0.001   0.0% |
  Basis functions set positions:     0.000     0.000   0.0% |
  P tci:                             0.000     0.000   0.0% |
  ST tci:                            0.013     0.013   0.1% |
  mktci:                             0.028     0.028   0.2% |
PWDescriptor:                        0.019     0.019   0.1% |
SCF-cycle:                          12.433     0.080   0.5% |
 Davidson:                           5.305     0.723   4.8% |-|
  Apply H:                           1.029     1.001   6.6% |--|
   HMM T:                            0.028     0.028   0.2% |
  Subspace diag:                     1.157     0.006   0.0% |
   calc_h_matrix:                    1.086     0.038   0.3% |
    Apply H:                         1.048     1.018   6.7% |--|
     HMM T:                          0.030     0.030   0.2% |
   diagonalize:                      0.026     0.026   0.2% |
   rotate_psi:                       0.038     0.038   0.3% |
  calc. matrices:                    2.280     0.217   1.4% ||
   Apply H:                          2.063     2.001  13.2% |----|
    HMM T:                           0.061     0.061   0.4% |
  diagonalize:                       0.060     0.060   0.4% |
  rotate_psi:                        0.057     0.057   0.4% |
 Density:                            2.525     0.000   0.0% |
  Atomic density matrices:           0.023     0.023   0.2% |
  Mix:                               1.199     1.199   7.9% |--|
  Multipole moments:                 0.003     0.003   0.0% |
  Pseudo density:                    1.299     0.686   4.5% |-|
   Symmetrize density:               0.612     0.612   4.0% |-|
 Hamiltonian:                        4.514     0.133   0.9% |
  Atomic:                            0.005     0.005   0.0% |
   XC Correction:                    0.000     0.000   0.0% |
  Calculate atomic Hamiltonians:     0.308     0.308   2.0% ||
  Communicate:                       1.463     1.463   9.6% |---|
  Poisson:                           0.010     0.010   0.1% |
  XC 3D grid:                        2.594     2.594  17.1% |------|
 Orthonormalize:                     0.010     0.000   0.0% |
  calc_s_matrix:                     0.001     0.001   0.0% |
  inverse-cholesky:                  0.002     0.002   0.0% |
  projections:                       0.006     0.006   0.0% |
  rotate_psi_s:                      0.001     0.001   0.0% |
Set symmetry:                        0.004     0.004   0.0% |
Other:                               1.702     1.702  11.2% |---|
-----------------------------------------------------------
Total:                                        15.186 100.0%

Memory usage: 133.25 MiB
Date: Mon Dec  9 11:30:38 2019
