
  ___ ___ ___ _ _ _  
 |   |   |_  | | | | 
 | | | | | . | | | | 
 |__ |  _|___|_____|  19.8.1
 |___|_|             

User:   fadjar@cn0015
Date:   Mon Dec  9 11:26:26 2019
Arch:   x86_64
Pid:    13917
Python: 3.7.3
gpaw:   /app/anaconda3/lib/python3.7/site-packages/gpaw
_gpaw:  /app/anaconda3/bin/gpaw-python
ase:    /app/anaconda3/lib/python3.7/site-packages/ase-3.18.0-py3.7.egg/ase (version 3.18.0)
numpy:  /app/anaconda3/lib/python3.7/site-packages/numpy (version 1.16.4)
scipy:  /app/anaconda3/lib/python3.7/site-packages/scipy (version 1.3.0)
libxc:  4.3.4
units:  Angstrom and eV
cores:  20

Input parameters:
  kpts: [6 6 1]
  mode: {ecut: 250.0,
         gammacentered: False,
         name: pw}
  xc: PBE

System changes: positions, numbers, cell, pbc, initial_charges, initial_magmoms 

Initialize ...

Al-setup:
  name: Aluminium
  id: 0292cae29f5d6237e50f6abdd43a7bdd
  Z: 13
  valence: 3
  core: 10
  charge: 0.0
  file: /app/gpaw-setups-0.9.20000/Al.PBE.gz
  compensation charges: gauss, rc=0.34, lmax=2
  cutoffs: 1.91(filt), 2.36(core),
  valence states:
                energy  radius
    3s(2.00)    -7.753   1.085
    3p(1.00)    -2.712   1.085
    *s          19.459   1.085
    *p          24.499   1.085
    *d           0.000   1.085

  Using partial waves for Al as LCAO basis

C-setup:
  name: Carbon
  id: 4aa54d4b901d75f77cc0ea3eec22967b
  Z: 6
  valence: 4
  core: 2
  charge: 0.0
  file: /app/gpaw-setups-0.9.20000/C.PBE.gz
  compensation charges: gauss, rc=0.20, lmax=2
  cutoffs: 1.14(filt), 1.14(core),
  valence states:
                energy  radius
    2s(2.00)   -13.751   0.635
    2p(2.00)    -5.284   0.635
    *s          13.461   0.635
    *p          21.927   0.635
    *d           0.000   0.635

  Using partial waves for C as LCAO basis

O-setup:
  name: Oxygen
  id: 32ecd46bf208036f09c70b0ec9a88b78
  Z: 8
  valence: 6
  core: 2
  charge: 0.0
  file: /app/gpaw-setups-0.9.20000/O.PBE.gz
  compensation charges: gauss, rc=0.21, lmax=2
  cutoffs: 1.17(filt), 0.83(core),
  valence states:
                energy  radius
    2s(2.00)   -23.961   0.688
    2p(4.00)    -9.029   0.598
    *s           3.251   0.688
    *p          18.182   0.598
    *d           0.000   0.619

  Using partial waves for O as LCAO basis

Reference energy: -22878.750211

Spin-paired calculation

Occupation numbers:
  Fermi-Dirac: width=0.1000 eV

Convergence criteria:
  Maximum total energy change: 0.0005 eV / electron
  Maximum integral of absolute density change: 0.0001 electrons
  Maximum integral of absolute eigenstate change: 4e-08 eV^2
  Maximum number of iterations: 333

Symmetries present (total): 6

  ( 1  0  0)  ( 1 -1  0)  ( 0  1  0)  ( 0 -1  0)  (-1  1  0)  (-1  0  0)
  ( 0  1  0)  ( 0 -1  0)  ( 1  0  0)  ( 1 -1  0)  (-1  0  0)  (-1  1  0)
  ( 0  0  1)  ( 0  0  1)  ( 0  0  1)  ( 0  0  1)  ( 0  0  1)  ( 0  0  1)
Note: your k-points are not as symmetric as your crystal!

36 k-points: 6 x 6 x 1 Monkhorst-Pack grid
12 k-points in the irreducible part of the Brillouin zone
       k-points in crystal coordinates                weights
   0:     0.08333333   -0.08333333    0.00000000          2/36
   1:     0.08333333    0.08333333    0.00000000          2/36
   2:     0.25000000   -0.25000000    0.00000000          2/36
   3:     0.25000000   -0.08333333    0.00000000          4/36
   4:     0.25000000    0.08333333    0.00000000          4/36
   5:     0.25000000    0.25000000    0.00000000          2/36
   6:     0.41666667   -0.41666667    0.00000000          2/36
   7:     0.41666667   -0.25000000    0.00000000          4/36
   8:     0.41666667   -0.08333333    0.00000000          4/36
   9:     0.41666667    0.08333333    0.00000000          4/36
          ...
  11:     0.41666667    0.41666667    0.00000000          2/36

Wave functions: Plane wave expansion
  Cutoff energy: 250.000 eV
  Number of coefficients (min, max): 1558, 1599
  Pulay-stress correction: 0.000000 eV/Ang^3 (de/decut=0.000000)
  Using Numpy's FFT
  ScaLapack parameters: grid=1x1, blocksize=None
  Wavefunction extrapolation:
    Improved wavefunction reuse through dual PAW basis 

Eigensolver
   Davidson(niter=2, smin=None, normalize=True) 

Densities:
  Coarse grid: 12*12*90 grid
  Fine grid: 24*24*180 grid
  Total Charge: 0.000000 

Density mixing:
  Method: separate
  Backend: pulay
  Linear mixing parameter: 0.05
  Mixing with 5 old densities
  Damping of long wave oscillations: 50 

Hamiltonian:
  XC and Coulomb potentials evaluated on a 24*24*180 grid
  Using the PBE Exchange-Correlation functional
 

XC parameters: PBE with 2 nearest neighbor stencil

Memory estimate:
  Process memory now: 87.77 MiB
  Calculator: 4.00 MiB
    Density: 1.21 MiB
      Arrays: 0.51 MiB
      Localized functions: 0.50 MiB
      Mixer: 0.20 MiB
    Hamiltonian: 0.35 MiB
      Arrays: 0.34 MiB
      XC: 0.00 MiB
      Poisson: 0.00 MiB
      vbar: 0.01 MiB
    Wavefunctions: 2.43 MiB
      Arrays psit_nG: 1.17 MiB
      Eigensolver: 0.55 MiB
      Projections: 0.01 MiB
      Projectors: 0.18 MiB
      PW-descriptor: 0.52 MiB

Total number of cores used: 20
Parallelization over k-points: 4
Domain decomposition: 1 x 1 x 5

Number of atoms: 5
Number of atomic orbitals: 20
Number of bands in calculation: 16
Bands to converge: occupied states only
Number of valence electrons: 19

... initialized

Initializing position-dependent things.

Density initialized from atomic densities
Creating initial wave functions:
  16 bands from LCAO basis set

                    
                    
                    
                    
       O            
                    
       C            
                    
                    
       Al           
                    
        Al          
                    
                    
           Al       
                    
                    
                    
                    

Positions:
   0 Al     1.430477    0.825886   10.000000    ( 0.0000,  0.0000,  0.0000)
   1 Al     0.000000    1.651773   12.335959    ( 0.0000,  0.0000,  0.0000)
   2 Al     0.000000    0.000000   14.671918    ( 0.0000,  0.0000,  0.0000)
   3 C      0.000000    0.000000   16.471918    ( 0.0000,  0.0000,  0.0000)
   4 O      0.000000    0.000000   17.901918    ( 0.0000,  0.0000,  0.0000)

Unit cell:
           periodic     x           y           z      points  spacing
  1. axis:    yes    2.860954    0.000000    0.000000    12     0.2065
  2. axis:    yes    1.430477    2.477659    0.000000    12     0.2065
  3. axis:    no     0.000000    0.000000   24.671918    90     0.2741

  Lengths:   2.860954   2.860954  24.671918
  Angles:   90.000000  90.000000  60.000000

Effective grid spacing dv^(1/3) = 0.2381

                     log10-error:    total        iterations:
           time      wfs    density  energy       fermi  poisson
iter:   1  11:26:28  +0.81   +inf   -18.885029    3             
iter:   2  11:26:28  -0.19  -0.51   -19.417962    31            
iter:   3  11:26:28  -1.80  -0.48   -10.302219    31            
iter:   4  11:26:28  -2.69  -0.92   -10.193386    3             
iter:   5  11:26:28  -1.38  -0.95    -9.648726    32            
iter:   6  11:26:29  -2.31  -1.25    -9.598247    4             
iter:   7  11:26:29  -2.75  -1.35    -9.534630    4             
iter:   8  11:26:29  -3.37  -1.58    -9.524502    3             
iter:   9  11:26:29  -3.36  -1.71    -9.513458    4             
iter:  10  11:26:29  -3.10  -1.83    -9.507938    4             
iter:  11  11:26:29  -3.99  -2.12    -9.504365    3             
iter:  12  11:26:30  -4.43  -2.32    -9.503791    3             
iter:  13  11:26:30  -5.07  -2.55    -9.503601    3             
iter:  14  11:26:30  -4.90  -2.62    -9.503482    3             
iter:  15  11:26:30  -5.08  -2.84    -9.503480    3             
iter:  16  11:26:30  -5.96  -2.96    -9.503452    3             
iter:  17  11:26:31  -6.31  -3.24    -9.503453    2             
iter:  18  11:26:31  -6.12  -3.32    -9.503451    3             
iter:  19  11:26:31  -6.92  -3.48    -9.503449    2             
iter:  20  11:26:31  -6.91  -3.54    -9.503444    2             
iter:  21  11:26:31  -7.38  -3.69    -9.503446    2             
iter:  22  11:26:31  -7.27  -3.77    -9.503450    2             
iter:  23  11:26:32  -8.24  -4.13    -9.503450    2             

Converged after 23 iterations.

Dipole moment: (-0.043318, -0.025010, -0.161475) |e|*Ang

Energy contributions relative to reference atoms: (reference = -22878.750211)

Kinetic:        -34.434539
Potential:      +44.979114
External:        +0.000000
XC:             -20.342250
Entropy (-ST):   -0.072020
Local:           +0.330234
--------------------------
Free energy:     -9.539460
Extrapolated:    -9.503450

Fermi level: -1.07103

Showing only first 2 kpts
 Kpt  Band  Eigenvalues  Occupancy
  0     7     -2.98678    0.11111
  0     8     -1.69219    0.11089
  0     9      1.43010    0.00000
  0    10      2.15904    0.00000

  1     7     -2.87034    0.11111
  1     8     -1.94450    0.11109
  1     9      1.68490    0.00000
  1    10      2.17047    0.00000


No gap
Timing:                              incl.     excl.
-----------------------------------------------------------
Hamiltonian:                         0.093     0.002   0.0% |
 Atomic:                             0.000     0.000   0.0% |
  XC Correction:                     0.000     0.000   0.0% |
 Calculate atomic Hamiltonians:      0.002     0.002   0.0% |
 Communicate:                        0.065     0.065   1.2% |
 Initialize Hamiltonian:             0.000     0.000   0.0% |
 Poisson:                            0.000     0.000   0.0% |
 XC 3D grid:                         0.024     0.024   0.5% |
LCAO initialization:                 0.381     0.136   2.6% ||
 LCAO eigensolver:                   0.048     0.000   0.0% |
  Calculate projections:             0.000     0.000   0.0% |
  DenseAtomicCorrection:             0.000     0.000   0.0% |
  Distribute overlap matrix:         0.047     0.047   0.9% |
  Orbital Layouts:                   0.001     0.001   0.0% |
  Potential matrix:                  0.000     0.000   0.0% |
  Sum over cells:                    0.000     0.000   0.0% |
 LCAO to grid:                       0.087     0.087   1.6% ||
 Set positions (LCAO WFS):           0.109     0.068   1.3% ||
  Basic WFS set positions:           0.001     0.001   0.0% |
  Basis functions set positions:     0.000     0.000   0.0% |
  P tci:                             0.000     0.000   0.0% |
  ST tci:                            0.012     0.012   0.2% |
  mktci:                             0.028     0.028   0.5% |
PWDescriptor:                        0.003     0.003   0.1% |
SCF-cycle:                           3.950     0.085   1.6% ||
 Davidson:                           1.273     0.244   4.6% |-|
  Apply H:                           0.198     0.192   3.6% ||
   HMM T:                            0.006     0.006   0.1% |
  Subspace diag:                     0.263     0.005   0.1% |
   calc_h_matrix:                    0.228     0.012   0.2% |
    Apply H:                         0.216     0.210   4.0% |-|
     HMM T:                          0.006     0.006   0.1% |
   diagonalize:                      0.020     0.020   0.4% |
   rotate_psi:                       0.009     0.009   0.2% |
  calc. matrices:                    0.500     0.104   1.9% ||
   Apply H:                          0.396     0.385   7.2% |--|
    HMM T:                           0.011     0.011   0.2% |
  diagonalize:                       0.053     0.053   1.0% |
  rotate_psi:                        0.016     0.016   0.3% |
 Density:                            0.534     0.000   0.0% |
  Atomic density matrices:           0.023     0.023   0.4% |
  Mix:                               0.251     0.251   4.7% |-|
  Multipole moments:                 0.003     0.003   0.1% |
  Pseudo density:                    0.257     0.129   2.4% ||
   Symmetrize density:               0.128     0.128   2.4% ||
 Hamiltonian:                        2.055     0.045   0.9% |
  Atomic:                            0.005     0.005   0.1% |
   XC Correction:                    0.000     0.000   0.0% |
  Calculate atomic Hamiltonians:     0.057     0.057   1.1% |
  Communicate:                       1.413     1.413  26.6% |----------|
  Poisson:                           0.002     0.002   0.0% |
  XC 3D grid:                        0.533     0.533  10.0% |---|
 Orthonormalize:                     0.003     0.000   0.0% |
  calc_s_matrix:                     0.000     0.000   0.0% |
  inverse-cholesky:                  0.001     0.001   0.0% |
  projections:                       0.001     0.001   0.0% |
  rotate_psi_s:                      0.000     0.000   0.0% |
Set symmetry:                        0.005     0.005   0.1% |
Other:                               0.886     0.886  16.7% |------|
-----------------------------------------------------------
Total:                                         5.317 100.0%

Memory usage: 91.62 MiB
Date: Mon Dec  9 11:26:32 2019
