
  ___ ___ ___ _ _ _  
 |   |   |_  | | | | 
 | | | | | . | | | | 
 |__ |  _|___|_____|  19.8.1
 |___|_|             

User:   fadjar@cn0015
Date:   Mon Dec  9 11:26:38 2019
Arch:   x86_64
Pid:    13917
Python: 3.7.3
gpaw:   /app/anaconda3/lib/python3.7/site-packages/gpaw
_gpaw:  /app/anaconda3/bin/gpaw-python
ase:    /app/anaconda3/lib/python3.7/site-packages/ase-3.18.0-py3.7.egg/ase (version 3.18.0)
numpy:  /app/anaconda3/lib/python3.7/site-packages/numpy (version 1.16.4)
scipy:  /app/anaconda3/lib/python3.7/site-packages/scipy (version 1.3.0)
libxc:  4.3.4
units:  Angstrom and eV
cores:  20

Input parameters:
  kpts: [6 6 1]
  mode: {ecut: 350.0,
         gammacentered: False,
         name: pw}
  xc: PBE

System changes: positions, numbers, cell, pbc, initial_charges, initial_magmoms 

Initialize ...

Al-setup:
  name: Aluminium
  id: 0292cae29f5d6237e50f6abdd43a7bdd
  Z: 13
  valence: 3
  core: 10
  charge: 0.0
  file: /app/gpaw-setups-0.9.20000/Al.PBE.gz
  compensation charges: gauss, rc=0.34, lmax=2
  cutoffs: 1.91(filt), 2.36(core),
  valence states:
                energy  radius
    3s(2.00)    -7.753   1.085
    3p(1.00)    -2.712   1.085
    *s          19.459   1.085
    *p          24.499   1.085
    *d           0.000   1.085

  Using partial waves for Al as LCAO basis

C-setup:
  name: Carbon
  id: 4aa54d4b901d75f77cc0ea3eec22967b
  Z: 6
  valence: 4
  core: 2
  charge: 0.0
  file: /app/gpaw-setups-0.9.20000/C.PBE.gz
  compensation charges: gauss, rc=0.20, lmax=2
  cutoffs: 1.14(filt), 1.14(core),
  valence states:
                energy  radius
    2s(2.00)   -13.751   0.635
    2p(2.00)    -5.284   0.635
    *s          13.461   0.635
    *p          21.927   0.635
    *d           0.000   0.635

  Using partial waves for C as LCAO basis

O-setup:
  name: Oxygen
  id: 32ecd46bf208036f09c70b0ec9a88b78
  Z: 8
  valence: 6
  core: 2
  charge: 0.0
  file: /app/gpaw-setups-0.9.20000/O.PBE.gz
  compensation charges: gauss, rc=0.21, lmax=2
  cutoffs: 1.17(filt), 0.83(core),
  valence states:
                energy  radius
    2s(2.00)   -23.961   0.688
    2p(4.00)    -9.029   0.598
    *s           3.251   0.688
    *p          18.182   0.598
    *d           0.000   0.619

  Using partial waves for O as LCAO basis

Reference energy: -22878.750211

Spin-paired calculation

Occupation numbers:
  Fermi-Dirac: width=0.1000 eV

Convergence criteria:
  Maximum total energy change: 0.0005 eV / electron
  Maximum integral of absolute density change: 0.0001 electrons
  Maximum integral of absolute eigenstate change: 4e-08 eV^2
  Maximum number of iterations: 333

Symmetries present (total): 6

  ( 1  0  0)  ( 1 -1  0)  ( 0  1  0)  ( 0 -1  0)  (-1  1  0)  (-1  0  0)
  ( 0  1  0)  ( 0 -1  0)  ( 1  0  0)  ( 1 -1  0)  (-1  0  0)  (-1  1  0)
  ( 0  0  1)  ( 0  0  1)  ( 0  0  1)  ( 0  0  1)  ( 0  0  1)  ( 0  0  1)
Note: your k-points are not as symmetric as your crystal!

36 k-points: 6 x 6 x 1 Monkhorst-Pack grid
12 k-points in the irreducible part of the Brillouin zone
       k-points in crystal coordinates                weights
   0:     0.08333333   -0.08333333    0.00000000          2/36
   1:     0.08333333    0.08333333    0.00000000          2/36
   2:     0.25000000   -0.25000000    0.00000000          2/36
   3:     0.25000000   -0.08333333    0.00000000          4/36
   4:     0.25000000    0.08333333    0.00000000          4/36
   5:     0.25000000    0.25000000    0.00000000          2/36
   6:     0.41666667   -0.41666667    0.00000000          2/36
   7:     0.41666667   -0.25000000    0.00000000          4/36
   8:     0.41666667   -0.08333333    0.00000000          4/36
   9:     0.41666667    0.08333333    0.00000000          4/36
          ...
  11:     0.41666667    0.41666667    0.00000000          2/36

Wave functions: Plane wave expansion
  Cutoff energy: 350.000 eV
  Number of coefficients (min, max): 2582, 2667
  Pulay-stress correction: 0.000000 eV/Ang^3 (de/decut=0.000000)
  Using Numpy's FFT
  ScaLapack parameters: grid=1x1, blocksize=None
  Wavefunction extrapolation:
    Improved wavefunction reuse through dual PAW basis 

Eigensolver
   Davidson(niter=2, smin=None, normalize=True) 

Densities:
  Coarse grid: 14*14*108 grid
  Fine grid: 28*28*216 grid
  Total Charge: 0.000000 

Density mixing:
  Method: separate
  Backend: pulay
  Linear mixing parameter: 0.05
  Mixing with 5 old densities
  Damping of long wave oscillations: 50 

Hamiltonian:
  XC and Coulomb potentials evaluated on a 28*28*216 grid
  Using the PBE Exchange-Correlation functional
 

XC parameters: PBE with 2 nearest neighbor stencil

Memory estimate:
  Process memory now: 95.86 MiB
  Calculator: 6.61 MiB
    Density: 2.02 MiB
      Arrays: 0.86 MiB
      Localized functions: 0.83 MiB
      Mixer: 0.33 MiB
    Hamiltonian: 0.58 MiB
      Arrays: 0.56 MiB
      XC: 0.00 MiB
      Poisson: 0.00 MiB
      vbar: 0.02 MiB
    Wavefunctions: 4.01 MiB
      Arrays psit_nG: 1.95 MiB
      Eigensolver: 0.89 MiB
      Projections: 0.01 MiB
      Projectors: 0.29 MiB
      PW-descriptor: 0.86 MiB

Total number of cores used: 20
Parallelization over k-points: 4
Domain decomposition: 1 x 1 x 5

Number of atoms: 5
Number of atomic orbitals: 20
Number of bands in calculation: 16
Bands to converge: occupied states only
Number of valence electrons: 19

... initialized

Initializing position-dependent things.

Density initialized from atomic densities
Creating initial wave functions:
  16 bands from LCAO basis set

                    
                    
                    
                    
       O            
                    
       C            
                    
                    
       Al           
                    
        Al          
                    
                    
           Al       
                    
                    
                    
                    

Positions:
   0 Al     1.430477    0.825886   10.000000    ( 0.0000,  0.0000,  0.0000)
   1 Al     0.000000    1.651773   12.335959    ( 0.0000,  0.0000,  0.0000)
   2 Al     0.000000    0.000000   14.671918    ( 0.0000,  0.0000,  0.0000)
   3 C      0.000000    0.000000   16.471918    ( 0.0000,  0.0000,  0.0000)
   4 O      0.000000    0.000000   17.901918    ( 0.0000,  0.0000,  0.0000)

Unit cell:
           periodic     x           y           z      points  spacing
  1. axis:    yes    2.860954    0.000000    0.000000    14     0.1770
  2. axis:    yes    1.430477    2.477659    0.000000    14     0.1770
  3. axis:    no     0.000000    0.000000   24.671918   108     0.2284

  Lengths:   2.860954   2.860954  24.671918
  Angles:   90.000000  90.000000  60.000000

Effective grid spacing dv^(1/3) = 0.2022

                     log10-error:    total        iterations:
           time      wfs    density  energy       fermi  poisson
iter:   1  11:26:39  +0.78   +inf   -23.600713    3             
iter:   2  11:26:39  -0.56  -0.62   -24.625228    4             
iter:   3  11:26:40  -2.23  -0.65   -19.964196    4             
iter:   4  11:26:40  -3.09  -0.95   -19.922003    3             
iter:   5  11:26:40  -1.21  -0.97   -20.401167    4             
iter:   6  11:26:40  -2.20  -1.03   -19.835060    4             
iter:   7  11:26:40  -2.18  -1.28   -19.691960    4             
iter:   8  11:26:41  -2.55  -1.55   -19.654450    4             
iter:   9  11:26:41  -3.89  -1.73   -19.645357    4             
iter:  10  11:26:41  -3.02  -1.85   -19.642738    4             
iter:  11  11:26:41  -3.73  -2.03   -19.639791    4             
iter:  12  11:26:42  -4.78  -2.19   -19.639302    2             
iter:  13  11:26:42  -4.27  -2.26   -19.638870    3             
iter:  14  11:26:42  -4.03  -2.41   -19.638033    3             
iter:  15  11:26:42  -4.94  -2.81   -19.638014    3             
iter:  16  11:26:42  -5.73  -2.89   -19.637968    2             
iter:  17  11:26:43  -5.31  -2.98   -19.637930    2             
iter:  18  11:26:43  -6.06  -3.22   -19.637917    2             
iter:  19  11:26:43  -6.65  -3.37   -19.637915    2             
iter:  20  11:26:43  -6.54  -3.43   -19.637919    2             
iter:  21  11:26:44  -7.06  -3.65   -19.637920    2             
iter:  22  11:26:44  -7.38  -3.79   -19.637920    2             
iter:  23  11:26:44  -7.83  -3.97   -19.637919    2             
iter:  24  11:26:44  -8.20  -3.99   -19.637920    2             
iter:  25  11:26:45  -7.89  -4.02   -19.637920    2             

Converged after 25 iterations.

Dipole moment: (-0.044429, -0.025651, -0.214367) |e|*Ang

Energy contributions relative to reference atoms: (reference = -22878.750211)

Kinetic:         -2.593918
Potential:       +6.642568
External:        +0.000000
XC:             -23.583543
Entropy (-ST):   -0.075758
Local:           -0.065148
--------------------------
Free energy:    -19.675799
Extrapolated:   -19.637920

Fermi level: -1.32688

Showing only first 2 kpts
 Kpt  Band  Eigenvalues  Occupancy
  0     7     -3.08804    0.11111
  0     8     -1.93019    0.11085
  0     9      1.13926    0.00000
  0    10      1.88837    0.00000

  1     7     -2.98790    0.11111
  1     8     -2.17903    0.11109
  1     9      1.46721    0.00000
  1    10      1.86064    0.00000


No gap
Timing:                              incl.     excl.
-----------------------------------------------------------
Hamiltonian:                         0.109     0.003   0.0% |
 Atomic:                             0.000     0.000   0.0% |
  XC Correction:                     0.000     0.000   0.0% |
 Calculate atomic Hamiltonians:      0.003     0.003   0.0% |
 Communicate:                        0.065     0.065   0.9% |
 Initialize Hamiltonian:             0.000     0.000   0.0% |
 Poisson:                            0.000     0.000   0.0% |
 XC 3D grid:                         0.038     0.038   0.5% |
LCAO initialization:                 0.455     0.139   2.0% ||
 LCAO eigensolver:                   0.073     0.000   0.0% |
  Calculate projections:             0.000     0.000   0.0% |
  DenseAtomicCorrection:             0.000     0.000   0.0% |
  Distribute overlap matrix:         0.072     0.072   1.0% |
  Orbital Layouts:                   0.001     0.001   0.0% |
  Potential matrix:                  0.000     0.000   0.0% |
  Sum over cells:                    0.000     0.000   0.0% |
 LCAO to grid:                       0.137     0.137   1.9% ||
 Set positions (LCAO WFS):           0.107     0.064   0.9% |
  Basic WFS set positions:           0.001     0.001   0.0% |
  Basis functions set positions:     0.000     0.000   0.0% |
  P tci:                             0.000     0.000   0.0% |
  ST tci:                            0.012     0.012   0.2% |
  mktci:                             0.028     0.028   0.4% |
PWDescriptor:                        0.005     0.005   0.1% |
SCF-cycle:                           5.549     0.082   1.2% |
 Davidson:                           1.902     0.327   4.6% |-|
  Apply H:                           0.321     0.314   4.5% |-|
   HMM T:                            0.007     0.007   0.1% |
  Subspace diag:                     0.389     0.006   0.1% |
   calc_h_matrix:                    0.346     0.017   0.2% |
    Apply H:                         0.328     0.320   4.5% |-|
     HMM T:                          0.008     0.008   0.1% |
   diagonalize:                      0.023     0.023   0.3% |
   rotate_psi:                       0.014     0.014   0.2% |
  calc. matrices:                    0.779     0.134   1.9% ||
   Apply H:                          0.645     0.630   8.9% |---|
    HMM T:                           0.015     0.015   0.2% |
  diagonalize:                       0.061     0.061   0.9% |
  rotate_psi:                        0.025     0.025   0.4% |
 Density:                            0.913     0.000   0.0% |
  Atomic density matrices:           0.025     0.025   0.4% |
  Mix:                               0.441     0.441   6.3% |--|
  Multipole moments:                 0.003     0.003   0.0% |
  Pseudo density:                    0.442     0.216   3.1% ||
   Symmetrize density:               0.226     0.226   3.2% ||
 Hamiltonian:                        2.648     0.065   0.9% |
  Atomic:                            0.006     0.006   0.1% |
   XC Correction:                    0.000     0.000   0.0% |
  Calculate atomic Hamiltonians:     0.110     0.110   1.6% ||
  Communicate:                       1.543     1.543  21.9% |--------|
  Poisson:                           0.003     0.003   0.0% |
  XC 3D grid:                        0.921     0.921  13.1% |----|
 Orthonormalize:                     0.004     0.000   0.0% |
  calc_s_matrix:                     0.000     0.000   0.0% |
  inverse-cholesky:                  0.001     0.001   0.0% |
  projections:                       0.002     0.002   0.0% |
  rotate_psi_s:                      0.000     0.000   0.0% |
Set symmetry:                        0.005     0.005   0.1% |
Other:                               0.916     0.916  13.0% |----|
-----------------------------------------------------------
Total:                                         7.039 100.0%

Memory usage: 104.62 MiB
Date: Mon Dec  9 11:26:45 2019
