
  ___ ___ ___ _ _ _  
 |   |   |_  | | | | 
 | | | | | . | | | | 
 |__ |  _|___|_____|  19.8.1
 |___|_|             

User:   fadjar@cn0015
Date:   Mon Dec  9 11:26:20 2019
Arch:   x86_64
Pid:    13917
Python: 3.7.3
gpaw:   /app/anaconda3/lib/python3.7/site-packages/gpaw
_gpaw:  /app/anaconda3/bin/gpaw-python
ase:    /app/anaconda3/lib/python3.7/site-packages/ase-3.18.0-py3.7.egg/ase (version 3.18.0)
numpy:  /app/anaconda3/lib/python3.7/site-packages/numpy (version 1.16.4)
scipy:  /app/anaconda3/lib/python3.7/site-packages/scipy (version 1.3.0)
libxc:  4.3.4
units:  Angstrom and eV
cores:  20

Input parameters:
  kpts: [6 6 1]
  mode: {ecut: 200.0,
         gammacentered: False,
         name: pw}
  xc: PBE

System changes: positions, numbers, cell, pbc, initial_charges, initial_magmoms 

Initialize ...

Al-setup:
  name: Aluminium
  id: 0292cae29f5d6237e50f6abdd43a7bdd
  Z: 13
  valence: 3
  core: 10
  charge: 0.0
  file: /app/gpaw-setups-0.9.20000/Al.PBE.gz
  compensation charges: gauss, rc=0.34, lmax=2
  cutoffs: 1.91(filt), 2.36(core),
  valence states:
                energy  radius
    3s(2.00)    -7.753   1.085
    3p(1.00)    -2.712   1.085
    *s          19.459   1.085
    *p          24.499   1.085
    *d           0.000   1.085

  Using partial waves for Al as LCAO basis

C-setup:
  name: Carbon
  id: 4aa54d4b901d75f77cc0ea3eec22967b
  Z: 6
  valence: 4
  core: 2
  charge: 0.0
  file: /app/gpaw-setups-0.9.20000/C.PBE.gz
  compensation charges: gauss, rc=0.20, lmax=2
  cutoffs: 1.14(filt), 1.14(core),
  valence states:
                energy  radius
    2s(2.00)   -13.751   0.635
    2p(2.00)    -5.284   0.635
    *s          13.461   0.635
    *p          21.927   0.635
    *d           0.000   0.635

  Using partial waves for C as LCAO basis

O-setup:
  name: Oxygen
  id: 32ecd46bf208036f09c70b0ec9a88b78
  Z: 8
  valence: 6
  core: 2
  charge: 0.0
  file: /app/gpaw-setups-0.9.20000/O.PBE.gz
  compensation charges: gauss, rc=0.21, lmax=2
  cutoffs: 1.17(filt), 0.83(core),
  valence states:
                energy  radius
    2s(2.00)   -23.961   0.688
    2p(4.00)    -9.029   0.598
    *s           3.251   0.688
    *p          18.182   0.598
    *d           0.000   0.619

  Using partial waves for O as LCAO basis

Reference energy: -22878.750211

Spin-paired calculation

Occupation numbers:
  Fermi-Dirac: width=0.1000 eV

Convergence criteria:
  Maximum total energy change: 0.0005 eV / electron
  Maximum integral of absolute density change: 0.0001 electrons
  Maximum integral of absolute eigenstate change: 4e-08 eV^2
  Maximum number of iterations: 333

Symmetries present (total): 6

  ( 1  0  0)  ( 1 -1  0)  ( 0  1  0)  ( 0 -1  0)  (-1  1  0)  (-1  0  0)
  ( 0  1  0)  ( 0 -1  0)  ( 1  0  0)  ( 1 -1  0)  (-1  0  0)  (-1  1  0)
  ( 0  0  1)  ( 0  0  1)  ( 0  0  1)  ( 0  0  1)  ( 0  0  1)  ( 0  0  1)
Note: your k-points are not as symmetric as your crystal!

36 k-points: 6 x 6 x 1 Monkhorst-Pack grid
12 k-points in the irreducible part of the Brillouin zone
       k-points in crystal coordinates                weights
   0:     0.08333333   -0.08333333    0.00000000          2/36
   1:     0.08333333    0.08333333    0.00000000          2/36
   2:     0.25000000   -0.25000000    0.00000000          2/36
   3:     0.25000000   -0.08333333    0.00000000          4/36
   4:     0.25000000    0.08333333    0.00000000          4/36
   5:     0.25000000    0.25000000    0.00000000          2/36
   6:     0.41666667   -0.41666667    0.00000000          2/36
   7:     0.41666667   -0.25000000    0.00000000          4/36
   8:     0.41666667   -0.08333333    0.00000000          4/36
   9:     0.41666667    0.08333333    0.00000000          4/36
          ...
  11:     0.41666667    0.41666667    0.00000000          2/36

Wave functions: Plane wave expansion
  Cutoff energy: 200.000 eV
  Number of coefficients (min, max): 1112, 1151
  Pulay-stress correction: 0.000000 eV/Ang^3 (de/decut=0.000000)
  Using Numpy's FFT
  ScaLapack parameters: grid=1x1, blocksize=None
  Wavefunction extrapolation:
    Improved wavefunction reuse through dual PAW basis 

Eigensolver
   Davidson(niter=2, smin=None, normalize=True) 

Densities:
  Coarse grid: 10*10*81 grid
  Fine grid: 20*20*162 grid
  Total Charge: 0.000000 

Density mixing:
  Method: separate
  Backend: pulay
  Linear mixing parameter: 0.05
  Mixing with 5 old densities
  Damping of long wave oscillations: 50 

Hamiltonian:
  XC and Coulomb potentials evaluated on a 20*20*162 grid
  Using the PBE Exchange-Correlation functional
 

XC parameters: PBE with 2 nearest neighbor stencil

Memory estimate:
  Process memory now: 70.28 MiB
  Calculator: 2.76 MiB
    Density: 0.82 MiB
      Arrays: 0.33 MiB
      Localized functions: 0.36 MiB
      Mixer: 0.13 MiB
    Hamiltonian: 0.22 MiB
      Arrays: 0.21 MiB
      XC: 0.00 MiB
      Poisson: 0.00 MiB
      vbar: 0.01 MiB
    Wavefunctions: 1.72 MiB
      Arrays psit_nG: 0.84 MiB
      Eigensolver: 0.41 MiB
      Projections: 0.01 MiB
      Projectors: 0.13 MiB
      PW-descriptor: 0.33 MiB

Total number of cores used: 20
Parallelization over k-points: 4
Domain decomposition: 1 x 1 x 5

Number of atoms: 5
Number of atomic orbitals: 20
Number of bands in calculation: 16
Bands to converge: occupied states only
Number of valence electrons: 19

... initialized

Initializing position-dependent things.

Density initialized from atomic densities
Creating initial wave functions:
  16 bands from LCAO basis set

                    
                    
                    
                    
       O            
                    
       C            
                    
                    
       Al           
                    
        Al          
                    
                    
           Al       
                    
                    
                    
                    

Positions:
   0 Al     1.430477    0.825886   10.000000    ( 0.0000,  0.0000,  0.0000)
   1 Al     0.000000    1.651773   12.335959    ( 0.0000,  0.0000,  0.0000)
   2 Al     0.000000    0.000000   14.671918    ( 0.0000,  0.0000,  0.0000)
   3 C      0.000000    0.000000   16.471918    ( 0.0000,  0.0000,  0.0000)
   4 O      0.000000    0.000000   17.901918    ( 0.0000,  0.0000,  0.0000)

Unit cell:
           periodic     x           y           z      points  spacing
  1. axis:    yes    2.860954    0.000000    0.000000    10     0.2478
  2. axis:    yes    1.430477    2.477659    0.000000    10     0.2478
  3. axis:    no     0.000000    0.000000   24.671918    81     0.3046

  Lengths:   2.860954   2.860954  24.671918
  Angles:   90.000000  90.000000  60.000000

Effective grid spacing dv^(1/3) = 0.2785

                     log10-error:    total        iterations:
           time      wfs    density  energy       fermi  poisson
iter:   1  11:26:22  +0.87   +inf   -14.515027    3             
iter:   2  11:26:22  -0.03  -0.47   -11.097040    3             
iter:   3  11:26:23  -1.50  -0.44    -0.600336    4             
iter:   4  11:26:23  -2.04  -0.88    -0.097339    4             
iter:   5  11:26:23  -1.30  -0.90     0.688808    4             
iter:   6  11:26:23  -2.07  -0.95     1.288171    30            
iter:   7  11:26:23  -1.95  -1.09     1.612125    32            
iter:   8  11:26:23  -3.16  -1.41     1.626733    4             
iter:   9  11:26:23  -3.65  -1.44     1.642731    3             
iter:  10  11:26:24  -2.98  -1.51     1.669682    4             
iter:  11  11:26:24  -3.12  -1.67     1.685672    4             
iter:  12  11:26:24  -3.64  -1.95     1.689095    4             
iter:  13  11:26:24  -4.32  -2.08     1.690433    3             
iter:  14  11:26:24  -5.13  -2.26     1.690664    3             
iter:  15  11:26:24  -4.18  -2.32     1.690974    3             
iter:  16  11:26:24  -5.08  -2.39     1.691325    3             
iter:  17  11:26:25  -5.32  -2.54     1.691600    3             
iter:  18  11:26:25  -4.91  -2.73     1.691814    3             
iter:  19  11:26:25  -5.92  -2.84     1.691829    2             
iter:  20  11:26:25  -5.99  -2.94     1.691840    3             
iter:  21  11:26:25  -6.78  -3.01     1.691845    2             
iter:  22  11:26:25  -5.89  -3.05     1.691871    3             
iter:  23  11:26:25  -6.54  -3.29     1.691875    2             
iter:  24  11:26:26  -6.99  -3.57     1.691878    2             
iter:  25  11:26:26  -6.97  -3.62     1.691882    3             
iter:  26  11:26:26  -7.30  -3.80     1.691879    2             
iter:  27  11:26:26  -8.03  -3.94     1.691879    2             
iter:  28  11:26:26  -8.18  -4.03     1.691877    2             

Converged after 28 iterations.

Dipole moment: (-0.043797, -0.025286, -0.135978) |e|*Ang

Energy contributions relative to reference atoms: (reference = -22878.750211)

Kinetic:        -64.742351
Potential:      +82.704799
External:        +0.000000
XC:             -16.763938
Entropy (-ST):   -0.074170
Local:           +0.530453
--------------------------
Free energy:     +1.654792
Extrapolated:    +1.691877

Fermi level: -0.87565

Showing only first 2 kpts
 Kpt  Band  Eigenvalues  Occupancy
  0     7     -2.65946    0.11111
  0     8     -1.48652    0.11086
  0     9      1.84428    0.00000
  0    10      2.50031    0.00000

  1     7     -2.56237    0.11111
  1     8     -1.72421    0.11109
  1     9      1.85443    0.00000
  1    10      2.70085    0.00000


No gap
Timing:                              incl.     excl.
-----------------------------------------------------------
Hamiltonian:                         0.084     0.002   0.0% |
 Atomic:                             0.000     0.000   0.0% |
  XC Correction:                     0.000     0.000   0.0% |
 Calculate atomic Hamiltonians:      0.001     0.001   0.0% |
 Communicate:                        0.065     0.065   1.1% |
 Initialize Hamiltonian:             0.000     0.000   0.0% |
 Poisson:                            0.000     0.000   0.0% |
 XC 3D grid:                         0.016     0.016   0.3% |
LCAO initialization:                 0.336     0.136   2.3% ||
 LCAO eigensolver:                   0.032     0.000   0.0% |
  Calculate projections:             0.000     0.000   0.0% |
  DenseAtomicCorrection:             0.000     0.000   0.0% |
  Distribute overlap matrix:         0.030     0.030   0.5% |
  Orbital Layouts:                   0.001     0.001   0.0% |
  Potential matrix:                  0.000     0.000   0.0% |
  Sum over cells:                    0.000     0.000   0.0% |
 LCAO to grid:                       0.059     0.059   1.0% |
 Set positions (LCAO WFS):           0.109     0.067   1.1% |
  Basic WFS set positions:           0.001     0.001   0.0% |
  Basis functions set positions:     0.000     0.000   0.0% |
  P tci:                             0.000     0.000   0.0% |
  ST tci:                            0.013     0.013   0.2% |
  mktci:                             0.028     0.028   0.5% |
PWDescriptor:                        0.002     0.002   0.0% |
SCF-cycle:                           4.108     0.112   1.9% ||
 Davidson:                           1.257     0.268   4.4% |-|
  Apply H:                           0.184     0.178   2.9% ||
   HMM T:                            0.006     0.006   0.1% |
  Subspace diag:                     0.245     0.006   0.1% |
   calc_h_matrix:                    0.205     0.014   0.2% |
    Apply H:                         0.190     0.184   3.0% ||
     HMM T:                          0.006     0.006   0.1% |
   diagonalize:                      0.024     0.024   0.4% |
   rotate_psi:                       0.009     0.009   0.2% |
  calc. matrices:                    0.483     0.118   2.0% ||
   Apply H:                          0.365     0.353   5.8% |-|
    HMM T:                           0.012     0.012   0.2% |
  diagonalize:                       0.061     0.061   1.0% |
  rotate_psi:                        0.017     0.017   0.3% |
 Density:                            0.472     0.000   0.0% |
  Atomic density matrices:           0.027     0.027   0.5% |
  Mix:                               0.211     0.211   3.5% ||
  Multipole moments:                 0.004     0.004   0.1% |
  Pseudo density:                    0.229     0.129   2.1% ||
   Symmetrize density:               0.100     0.100   1.7% ||
 Hamiltonian:                        2.263     0.046   0.8% |
  Atomic:                            0.006     0.006   0.1% |
   XC Correction:                    0.000     0.000   0.0% |
  Calculate atomic Hamiltonians:     0.047     0.047   0.8% |
  Communicate:                       1.734     1.734  28.7% |----------|
  Poisson:                           0.003     0.003   0.0% |
  XC 3D grid:                        0.427     0.427   7.1% |--|
 Orthonormalize:                     0.004     0.000   0.0% |
  calc_s_matrix:                     0.001     0.001   0.0% |
  inverse-cholesky:                  0.001     0.001   0.0% |
  projections:                       0.002     0.002   0.0% |
  rotate_psi_s:                      0.001     0.001   0.0% |
Set symmetry:                        0.004     0.004   0.1% |
Other:                               1.501     1.501  24.9% |---------|
-----------------------------------------------------------
Total:                                         6.035 100.0%

Memory usage: 83.91 MiB
Date: Mon Dec  9 11:26:26 2019
