
  ___ ___ ___ _ _ _  
 |   |   |_  | | | | 
 | | | | | . | | | | 
 |__ |  _|___|_____|  19.8.1
 |___|_|             

User:   fadjar@cn0015
Date:   Mon Dec  9 11:26:32 2019
Arch:   x86_64
Pid:    13917
Python: 3.7.3
gpaw:   /app/anaconda3/lib/python3.7/site-packages/gpaw
_gpaw:  /app/anaconda3/bin/gpaw-python
ase:    /app/anaconda3/lib/python3.7/site-packages/ase-3.18.0-py3.7.egg/ase (version 3.18.0)
numpy:  /app/anaconda3/lib/python3.7/site-packages/numpy (version 1.16.4)
scipy:  /app/anaconda3/lib/python3.7/site-packages/scipy (version 1.3.0)
libxc:  4.3.4
units:  Angstrom and eV
cores:  20

Input parameters:
  kpts: [6 6 1]
  mode: {ecut: 300.0,
         gammacentered: False,
         name: pw}
  xc: PBE

System changes: positions, numbers, cell, pbc, initial_charges, initial_magmoms 

Initialize ...

Al-setup:
  name: Aluminium
  id: 0292cae29f5d6237e50f6abdd43a7bdd
  Z: 13
  valence: 3
  core: 10
  charge: 0.0
  file: /app/gpaw-setups-0.9.20000/Al.PBE.gz
  compensation charges: gauss, rc=0.34, lmax=2
  cutoffs: 1.91(filt), 2.36(core),
  valence states:
                energy  radius
    3s(2.00)    -7.753   1.085
    3p(1.00)    -2.712   1.085
    *s          19.459   1.085
    *p          24.499   1.085
    *d           0.000   1.085

  Using partial waves for Al as LCAO basis

C-setup:
  name: Carbon
  id: 4aa54d4b901d75f77cc0ea3eec22967b
  Z: 6
  valence: 4
  core: 2
  charge: 0.0
  file: /app/gpaw-setups-0.9.20000/C.PBE.gz
  compensation charges: gauss, rc=0.20, lmax=2
  cutoffs: 1.14(filt), 1.14(core),
  valence states:
                energy  radius
    2s(2.00)   -13.751   0.635
    2p(2.00)    -5.284   0.635
    *s          13.461   0.635
    *p          21.927   0.635
    *d           0.000   0.635

  Using partial waves for C as LCAO basis

O-setup:
  name: Oxygen
  id: 32ecd46bf208036f09c70b0ec9a88b78
  Z: 8
  valence: 6
  core: 2
  charge: 0.0
  file: /app/gpaw-setups-0.9.20000/O.PBE.gz
  compensation charges: gauss, rc=0.21, lmax=2
  cutoffs: 1.17(filt), 0.83(core),
  valence states:
                energy  radius
    2s(2.00)   -23.961   0.688
    2p(4.00)    -9.029   0.598
    *s           3.251   0.688
    *p          18.182   0.598
    *d           0.000   0.619

  Using partial waves for O as LCAO basis

Reference energy: -22878.750211

Spin-paired calculation

Occupation numbers:
  Fermi-Dirac: width=0.1000 eV

Convergence criteria:
  Maximum total energy change: 0.0005 eV / electron
  Maximum integral of absolute density change: 0.0001 electrons
  Maximum integral of absolute eigenstate change: 4e-08 eV^2
  Maximum number of iterations: 333

Symmetries present (total): 6

  ( 1  0  0)  ( 1 -1  0)  ( 0  1  0)  ( 0 -1  0)  (-1  1  0)  (-1  0  0)
  ( 0  1  0)  ( 0 -1  0)  ( 1  0  0)  ( 1 -1  0)  (-1  0  0)  (-1  1  0)
  ( 0  0  1)  ( 0  0  1)  ( 0  0  1)  ( 0  0  1)  ( 0  0  1)  ( 0  0  1)
Note: your k-points are not as symmetric as your crystal!

36 k-points: 6 x 6 x 1 Monkhorst-Pack grid
12 k-points in the irreducible part of the Brillouin zone
       k-points in crystal coordinates                weights
   0:     0.08333333   -0.08333333    0.00000000          2/36
   1:     0.08333333    0.08333333    0.00000000          2/36
   2:     0.25000000   -0.25000000    0.00000000          2/36
   3:     0.25000000   -0.08333333    0.00000000          4/36
   4:     0.25000000    0.08333333    0.00000000          4/36
   5:     0.25000000    0.25000000    0.00000000          2/36
   6:     0.41666667   -0.41666667    0.00000000          2/36
   7:     0.41666667   -0.25000000    0.00000000          4/36
   8:     0.41666667   -0.08333333    0.00000000          4/36
   9:     0.41666667    0.08333333    0.00000000          4/36
          ...
  11:     0.41666667    0.41666667    0.00000000          2/36

Wave functions: Plane wave expansion
  Cutoff energy: 300.000 eV
  Number of coefficients (min, max): 1987, 2087
  Pulay-stress correction: 0.000000 eV/Ang^3 (de/decut=0.000000)
  Using Numpy's FFT
  ScaLapack parameters: grid=1x1, blocksize=None
  Wavefunction extrapolation:
    Improved wavefunction reuse through dual PAW basis 

Eigensolver
   Davidson(niter=2, smin=None, normalize=True) 

Densities:
  Coarse grid: 12*12*100 grid
  Fine grid: 24*24*200 grid
  Total Charge: 0.000000 

Density mixing:
  Method: separate
  Backend: pulay
  Linear mixing parameter: 0.05
  Mixing with 5 old densities
  Damping of long wave oscillations: 50 

Hamiltonian:
  XC and Coulomb potentials evaluated on a 24*24*200 grid
  Using the PBE Exchange-Correlation functional
 

XC parameters: PBE with 2 nearest neighbor stencil

Memory estimate:
  Process memory now: 91.65 MiB
  Calculator: 4.91 MiB
    Density: 1.45 MiB
      Arrays: 0.57 MiB
      Localized functions: 0.66 MiB
      Mixer: 0.22 MiB
    Hamiltonian: 0.39 MiB
      Arrays: 0.37 MiB
      XC: 0.00 MiB
      Poisson: 0.00 MiB
      vbar: 0.02 MiB
    Wavefunctions: 3.06 MiB
      Arrays psit_nG: 1.53 MiB
      Eigensolver: 0.71 MiB
      Projections: 0.01 MiB
      Projectors: 0.23 MiB
      PW-descriptor: 0.59 MiB

Total number of cores used: 20
Parallelization over k-points: 4
Domain decomposition: 1 x 1 x 5

Number of atoms: 5
Number of atomic orbitals: 20
Number of bands in calculation: 16
Bands to converge: occupied states only
Number of valence electrons: 19

... initialized

Initializing position-dependent things.

Density initialized from atomic densities
Creating initial wave functions:
  16 bands from LCAO basis set

                    
                    
                    
                    
       O            
                    
       C            
                    
                    
       Al           
                    
        Al          
                    
                    
           Al       
                    
                    
                    
                    

Positions:
   0 Al     1.430477    0.825886   10.000000    ( 0.0000,  0.0000,  0.0000)
   1 Al     0.000000    1.651773   12.335959    ( 0.0000,  0.0000,  0.0000)
   2 Al     0.000000    0.000000   14.671918    ( 0.0000,  0.0000,  0.0000)
   3 C      0.000000    0.000000   16.471918    ( 0.0000,  0.0000,  0.0000)
   4 O      0.000000    0.000000   17.901918    ( 0.0000,  0.0000,  0.0000)

Unit cell:
           periodic     x           y           z      points  spacing
  1. axis:    yes    2.860954    0.000000    0.000000    12     0.2065
  2. axis:    yes    1.430477    2.477659    0.000000    12     0.2065
  3. axis:    no     0.000000    0.000000   24.671918   100     0.2467

  Lengths:   2.860954   2.860954  24.671918
  Angles:   90.000000  90.000000  60.000000

Effective grid spacing dv^(1/3) = 0.2299

                     log10-error:    total        iterations:
           time      wfs    density  energy       fermi  poisson
iter:   1  11:26:33  +0.79   +inf   -21.871432    4             
iter:   2  11:26:33  -0.35  -0.56   -23.563721    4             
iter:   3  11:26:33  -2.04  -0.56   -16.547838    4             
iter:   4  11:26:34  -3.03  -0.94   -16.486218    4             
iter:   5  11:26:34  -1.47  -0.97   -16.750896    32            
iter:   6  11:26:34  -2.14  -1.09   -16.276256    4             
iter:   7  11:26:34  -2.50  -1.36   -16.187650    4             
iter:   8  11:26:34  -2.41  -1.47   -16.188988    4             
iter:   9  11:26:35  -3.02  -1.58   -16.139742    4             
iter:  10  11:26:35  -2.75  -1.81   -16.131001    4             
iter:  11  11:26:35  -3.78  -1.99   -16.128456    4             
iter:  12  11:26:35  -4.18  -2.08   -16.126639    3             
iter:  13  11:26:35  -4.33  -2.24   -16.125504    3             
iter:  14  11:26:35  -4.27  -2.42   -16.124878    3             
iter:  15  11:26:36  -4.92  -2.64   -16.124798    2             
iter:  16  11:26:36  -5.01  -2.73   -16.124649    2             
iter:  17  11:26:36  -5.69  -2.93   -16.124651    3             
iter:  18  11:26:36  -5.83  -3.04   -16.124660    3             
iter:  19  11:26:36  -6.48  -3.21   -16.124659    3             
iter:  20  11:26:37  -6.69  -3.28   -16.124648    2             
iter:  21  11:26:37  -6.33  -3.33   -16.124651    3             
iter:  22  11:26:37  -6.81  -3.45   -16.124657    2             
iter:  23  11:26:37  -7.22  -3.67   -16.124656    2             
iter:  24  11:26:37  -7.62  -3.91   -16.124654    2             
iter:  25  11:26:38  -8.01  -4.04   -16.124656    2             

Converged after 25 iterations.

Dipole moment: (-0.044968, -0.025963, -0.199030) |e|*Ang

Energy contributions relative to reference atoms: (reference = -22878.750211)

Kinetic:        -14.573846
Potential:      +20.938737
External:        +0.000000
XC:             -22.484204
Entropy (-ST):   -0.074743
Local:           +0.032028
--------------------------
Free energy:    -16.162027
Extrapolated:   -16.124656

Fermi level: -1.26336

Showing only first 2 kpts
 Kpt  Band  Eigenvalues  Occupancy
  0     7     -2.71130    0.11111
  0     8     -1.85769    0.11082
  0     9      1.39044    0.00000
  0    10      2.02935    0.00000

  1     7     -2.63407    0.11111
  1     8     -2.10317    0.11109
  1     9      1.55619    0.00000
  1    10      2.25604    0.00000


No gap
Timing:                              incl.     excl.
-----------------------------------------------------------
Hamiltonian:                         0.097     0.002   0.0% |
 Atomic:                             0.000     0.000   0.0% |
  XC Correction:                     0.000     0.000   0.0% |
 Calculate atomic Hamiltonians:      0.003     0.003   0.0% |
 Communicate:                        0.065     0.065   1.1% |
 Initialize Hamiltonian:             0.000     0.000   0.0% |
 Poisson:                            0.000     0.000   0.0% |
 XC 3D grid:                         0.027     0.027   0.4% |
LCAO initialization:                 0.390     0.139   2.3% ||
 LCAO eigensolver:                   0.052     0.000   0.0% |
  Calculate projections:             0.000     0.000   0.0% |
  DenseAtomicCorrection:             0.000     0.000   0.0% |
  Distribute overlap matrix:         0.051     0.051   0.9% |
  Orbital Layouts:                   0.001     0.001   0.0% |
  Potential matrix:                  0.000     0.000   0.0% |
  Sum over cells:                    0.000     0.000   0.0% |
 LCAO to grid:                       0.094     0.094   1.6% ||
 Set positions (LCAO WFS):           0.105     0.063   1.1% |
  Basic WFS set positions:           0.001     0.001   0.0% |
  Basis functions set positions:     0.000     0.000   0.0% |
  P tci:                             0.000     0.000   0.0% |
  ST tci:                            0.012     0.012   0.2% |
  mktci:                             0.028     0.028   0.5% |
PWDescriptor:                        0.003     0.003   0.1% |
SCF-cycle:                           4.575     0.078   1.3% ||
 Davidson:                           1.474     0.288   4.8% |-|
  Apply H:                           0.231     0.224   3.8% |-|
   HMM T:                            0.007     0.007   0.1% |
  Subspace diag:                     0.292     0.006   0.1% |
   calc_h_matrix:                    0.252     0.014   0.2% |
    Apply H:                         0.238     0.230   3.9% |-|
     HMM T:                          0.007     0.007   0.1% |
   diagonalize:                      0.022     0.022   0.4% |
   rotate_psi:                       0.012     0.012   0.2% |
  calc. matrices:                    0.583     0.122   2.0% ||
   Apply H:                          0.461     0.447   7.5% |--|
    HMM T:                           0.014     0.014   0.2% |
  diagonalize:                       0.059     0.059   1.0% |
  rotate_psi:                        0.021     0.021   0.3% |
 Density:                            0.669     0.000   0.0% |
  Atomic density matrices:           0.025     0.025   0.4% |
  Mix:                               0.333     0.333   5.6% |-|
  Multipole moments:                 0.003     0.003   0.1% |
  Pseudo density:                    0.307     0.152   2.5% ||
   Symmetrize density:               0.155     0.155   2.6% ||
 Hamiltonian:                        2.351     0.053   0.9% |
  Atomic:                            0.006     0.006   0.1% |
   XC Correction:                    0.000     0.000   0.0% |
  Calculate atomic Hamiltonians:     0.098     0.098   1.6% ||
  Communicate:                       1.545     1.545  25.9% |---------|
  Poisson:                           0.003     0.003   0.1% |
  XC 3D grid:                        0.647     0.647  10.8% |---|
 Orthonormalize:                     0.003     0.000   0.0% |
  calc_s_matrix:                     0.000     0.000   0.0% |
  inverse-cholesky:                  0.001     0.001   0.0% |
  projections:                       0.001     0.001   0.0% |
  rotate_psi_s:                      0.000     0.000   0.0% |
Set symmetry:                        0.005     0.005   0.1% |
Other:                               0.893     0.893  15.0% |-----|
-----------------------------------------------------------
Total:                                         5.962 100.0%

Memory usage: 95.82 MiB
Date: Mon Dec  9 11:26:38 2019
