
  ___ ___ ___ _ _ _  
 |   |   |_  | | | | 
 | | | | | . | | | | 
 |__ |  _|___|_____|  19.8.1
 |___|_|             

User:   fadjar@cn0015
Date:   Mon Dec  9 11:31:30 2019
Arch:   x86_64
Pid:    14612
Python: 3.7.3
gpaw:   /app/anaconda3/lib/python3.7/site-packages/gpaw
_gpaw:  /app/anaconda3/bin/gpaw-python
ase:    /app/anaconda3/lib/python3.7/site-packages/ase-3.18.0-py3.7.egg/ase (version 3.18.0)
numpy:  /app/anaconda3/lib/python3.7/site-packages/numpy (version 1.16.4)
scipy:  /app/anaconda3/lib/python3.7/site-packages/scipy (version 1.3.0)
libxc:  4.3.4
units:  Angstrom and eV
cores:  20

Input parameters:
  kpts: [6 6 1]
  mode: {ecut: 950.0,
         gammacentered: False,
         name: pw}
  xc: PBE

System changes: positions, numbers, cell, pbc, initial_charges, initial_magmoms 

Initialize ...

Al-setup:
  name: Aluminium
  id: 0292cae29f5d6237e50f6abdd43a7bdd
  Z: 13
  valence: 3
  core: 10
  charge: 0.0
  file: /app/gpaw-setups-0.9.20000/Al.PBE.gz
  compensation charges: gauss, rc=0.34, lmax=2
  cutoffs: 1.91(filt), 2.36(core),
  valence states:
                energy  radius
    3s(2.00)    -7.753   1.085
    3p(1.00)    -2.712   1.085
    *s          19.459   1.085
    *p          24.499   1.085
    *d           0.000   1.085

  Using partial waves for Al as LCAO basis

C-setup:
  name: Carbon
  id: 4aa54d4b901d75f77cc0ea3eec22967b
  Z: 6
  valence: 4
  core: 2
  charge: 0.0
  file: /app/gpaw-setups-0.9.20000/C.PBE.gz
  compensation charges: gauss, rc=0.20, lmax=2
  cutoffs: 1.14(filt), 1.14(core),
  valence states:
                energy  radius
    2s(2.00)   -13.751   0.635
    2p(2.00)    -5.284   0.635
    *s          13.461   0.635
    *p          21.927   0.635
    *d           0.000   0.635

  Using partial waves for C as LCAO basis

O-setup:
  name: Oxygen
  id: 32ecd46bf208036f09c70b0ec9a88b78
  Z: 8
  valence: 6
  core: 2
  charge: 0.0
  file: /app/gpaw-setups-0.9.20000/O.PBE.gz
  compensation charges: gauss, rc=0.21, lmax=2
  cutoffs: 1.17(filt), 0.83(core),
  valence states:
                energy  radius
    2s(2.00)   -23.961   0.688
    2p(4.00)    -9.029   0.598
    *s           3.251   0.688
    *p          18.182   0.598
    *d           0.000   0.619

  Using partial waves for O as LCAO basis

Reference energy: -22878.750211

Spin-paired calculation

Occupation numbers:
  Fermi-Dirac: width=0.1000 eV

Convergence criteria:
  Maximum total energy change: 0.0005 eV / electron
  Maximum integral of absolute density change: 0.0001 electrons
  Maximum integral of absolute eigenstate change: 4e-08 eV^2
  Maximum number of iterations: 333

Symmetries present (total): 6

  ( 1  0  0)  ( 1 -1  0)  ( 0  1  0)  ( 0 -1  0)  (-1  1  0)  (-1  0  0)
  ( 0  1  0)  ( 0 -1  0)  ( 1  0  0)  ( 1 -1  0)  (-1  0  0)  (-1  1  0)
  ( 0  0  1)  ( 0  0  1)  ( 0  0  1)  ( 0  0  1)  ( 0  0  1)  ( 0  0  1)
Note: your k-points are not as symmetric as your crystal!

36 k-points: 6 x 6 x 1 Monkhorst-Pack grid
12 k-points in the irreducible part of the Brillouin zone
       k-points in crystal coordinates                weights
   0:     0.08333333   -0.08333333    0.00000000          2/36
   1:     0.08333333    0.08333333    0.00000000          2/36
   2:     0.25000000   -0.25000000    0.00000000          2/36
   3:     0.25000000   -0.08333333    0.00000000          4/36
   4:     0.25000000    0.08333333    0.00000000          4/36
   5:     0.25000000    0.25000000    0.00000000          2/36
   6:     0.41666667   -0.41666667    0.00000000          2/36
   7:     0.41666667   -0.25000000    0.00000000          4/36
   8:     0.41666667   -0.08333333    0.00000000          4/36
   9:     0.41666667    0.08333333    0.00000000          4/36
          ...
  11:     0.41666667    0.41666667    0.00000000          2/36

Wave functions: Plane wave expansion
  Cutoff energy: 950.000 eV
  Number of coefficients (min, max): 11597, 11666
  Pulay-stress correction: 0.000000 eV/Ang^3 (de/decut=0.000000)
  Using Numpy's FFT
  ScaLapack parameters: grid=1x1, blocksize=None
  Wavefunction extrapolation:
    Improved wavefunction reuse through dual PAW basis 

Eigensolver
   Davidson(niter=2, smin=None, normalize=True) 

Densities:
  Coarse grid: 21*21*180 grid
  Fine grid: 42*42*360 grid
  Total Charge: 0.000000 

Density mixing:
  Method: separate
  Backend: pulay
  Linear mixing parameter: 0.05
  Mixing with 5 old densities
  Damping of long wave oscillations: 50 

Hamiltonian:
  XC and Coulomb potentials evaluated on a 42*42*360 grid
  Using the PBE Exchange-Correlation functional
 

XC parameters: PBE with 2 nearest neighbor stencil

Memory estimate:
  Process memory now: 160.27 MiB
  Calculator: 27.09 MiB
    Density: 8.08 MiB
      Arrays: 3.15 MiB
      Localized functions: 3.72 MiB
      Mixer: 1.21 MiB
    Hamiltonian: 2.16 MiB
      Arrays: 2.06 MiB
      XC: 0.00 MiB
      Poisson: 0.00 MiB
      vbar: 0.10 MiB
    Wavefunctions: 16.86 MiB
      Arrays psit_nG: 8.54 MiB
      Eigensolver: 3.78 MiB
      Projections: 0.01 MiB
      Projectors: 1.28 MiB
      PW-descriptor: 3.24 MiB

Total number of cores used: 20
Parallelization over k-points: 4
Domain decomposition: 1 x 1 x 5

Number of atoms: 5
Number of atomic orbitals: 20
Number of bands in calculation: 16
Bands to converge: occupied states only
Number of valence electrons: 19

... initialized

Initializing position-dependent things.

Density initialized from atomic densities
Creating initial wave functions:
  16 bands from LCAO basis set

                    
                    
                    
                    
       O            
                    
       C            
                    
                    
       Al           
                    
        Al          
                    
                    
           Al       
                    
                    
                    
                    

Positions:
   0 Al     1.430477    0.825886   10.000000    ( 0.0000,  0.0000,  0.0000)
   1 Al     0.000000    1.651773   12.335959    ( 0.0000,  0.0000,  0.0000)
   2 Al     0.000000    0.000000   14.671918    ( 0.0000,  0.0000,  0.0000)
   3 C      0.000000    0.000000   16.471918    ( 0.0000,  0.0000,  0.0000)
   4 O      0.000000    0.000000   17.901918    ( 0.0000,  0.0000,  0.0000)

Unit cell:
           periodic     x           y           z      points  spacing
  1. axis:    yes    2.860954    0.000000    0.000000    21     0.1180
  2. axis:    yes    1.430477    2.477659    0.000000    21     0.1180
  3. axis:    no     0.000000    0.000000   24.671918   180     0.1371

  Lengths:   2.860954   2.860954  24.671918
  Angles:   90.000000  90.000000  60.000000

Effective grid spacing dv^(1/3) = 0.1301

                     log10-error:    total        iterations:
           time      wfs    density  energy       fermi  poisson
iter:   1  11:31:33  +0.89   +inf   -26.092371    3             
iter:   2  11:31:33  -0.98  -0.71   -25.454074    3             
iter:   3  11:31:34  -2.37  -0.83   -23.647466    3             
iter:   4  11:31:35  -3.01  -0.97   -23.603257    3             
iter:   5  11:31:36  -1.22  -0.99   -23.859870    31            
iter:   6  11:31:36  -1.48  -1.08   -23.485837    32            
iter:   7  11:31:37  -2.37  -1.35   -23.403565    3             
iter:   8  11:31:38  -3.11  -1.53   -23.357254    5             
iter:   9  11:31:39  -3.51  -1.72   -23.354828    4             
iter:  10  11:31:39  -3.07  -1.78   -23.341746    4             
iter:  11  11:31:40  -4.27  -2.06   -23.340826    3             
iter:  12  11:31:41  -3.86  -2.13   -23.338085    3             
iter:  13  11:31:41  -4.12  -2.49   -23.337806    3             
iter:  14  11:31:42  -5.05  -2.70   -23.337612    2             
iter:  15  11:31:43  -5.61  -2.86   -23.337551    3             
iter:  16  11:31:44  -4.99  -2.98   -23.337474    3             
iter:  17  11:31:44  -6.05  -3.25   -23.337469    3             
iter:  18  11:31:45  -6.17  -3.31   -23.337465    3             
iter:  19  11:31:46  -6.65  -3.47   -23.337473    2             
iter:  20  11:31:47  -7.18  -3.52   -23.337471    2             
iter:  21  11:31:47  -7.29  -3.54   -23.337472    2             
iter:  22  11:31:48  -6.77  -3.58   -23.337470    2             
iter:  23  11:31:49  -7.47  -3.85   -23.337471    2             
iter:  24  11:31:50  -7.48  -4.02   -23.337473    2             

Converged after 24 iterations.

Dipole moment: (-0.044928, -0.025939, -0.230877) |e|*Ang

Energy contributions relative to reference atoms: (reference = -22878.750211)

Kinetic:        +14.392660
Potential:      -13.097735
External:        +0.000000
XC:             -24.832676
Entropy (-ST):   -0.076000
Local:           +0.238278
--------------------------
Free energy:    -23.375473
Extrapolated:   -23.337473

Fermi level: -1.41580

Showing only first 2 kpts
 Kpt  Band  Eigenvalues  Occupancy
  0     7     -3.12069    0.11111
  0     8     -2.01067    0.11082
  0     9      1.04747    0.00000
  0    10      1.81299    0.00000

  1     7     -3.02120    0.11111
  1     8     -2.25829    0.11109
  1     9      1.39489    0.00000
  1    10      1.78695    0.00000


No gap
Timing:                              incl.     excl.
-----------------------------------------------------------
Hamiltonian:                         0.240     0.007   0.0% |
 Atomic:                             0.000     0.000   0.0% |
  XC Correction:                     0.000     0.000   0.0% |
 Calculate atomic Hamiltonians:      0.019     0.019   0.1% |
 Communicate:                        0.067     0.067   0.3% |
 Initialize Hamiltonian:             0.000     0.000   0.0% |
 Poisson:                            0.001     0.001   0.0% |
 XC 3D grid:                         0.145     0.145   0.7% |
LCAO initialization:                 0.945     0.137   0.7% |
 LCAO eigensolver:                   0.234     0.000   0.0% |
  Calculate projections:             0.000     0.000   0.0% |
  DenseAtomicCorrection:             0.000     0.000   0.0% |
  Distribute overlap matrix:         0.233     0.233   1.2% |
  Orbital Layouts:                   0.001     0.001   0.0% |
  Potential matrix:                  0.000     0.000   0.0% |
  Sum over cells:                    0.000     0.000   0.0% |
 LCAO to grid:                       0.487     0.487   2.5% ||
 Set positions (LCAO WFS):           0.087     0.045   0.2% |
  Basic WFS set positions:           0.001     0.001   0.0% |
  Basis functions set positions:     0.000     0.000   0.0% |
  P tci:                             0.000     0.000   0.0% |
  ST tci:                            0.013     0.013   0.1% |
  mktci:                             0.028     0.028   0.1% |
PWDescriptor:                        0.023     0.023   0.1% |
SCF-cycle:                          17.202     0.234   1.2% |
 Davidson:                           7.969     1.062   5.4% |-|
  Apply H:                           1.548     1.511   7.7% |--|
   HMM T:                            0.037     0.037   0.2% |
  Subspace diag:                     1.751     0.007   0.0% |
   calc_h_matrix:                    1.655     0.045   0.2% |
    Apply H:                         1.610     1.572   8.0% |--|
     HMM T:                          0.038     0.038   0.2% |
   diagonalize:                      0.030     0.030   0.2% |
   rotate_psi:                       0.060     0.060   0.3% |
  calc. matrices:                    3.444     0.286   1.5% ||
   Apply H:                          3.158     3.081  15.7% |-----|
    HMM T:                           0.077     0.077   0.4% |
  diagonalize:                       0.065     0.065   0.3% |
  rotate_psi:                        0.099     0.099   0.5% |
 Density:                            3.411     0.001   0.0% |
  Atomic density matrices:           0.025     0.025   0.1% |
  Mix:                               1.529     1.529   7.8% |--|
  Multipole moments:                 0.003     0.003   0.0% |
  Pseudo density:                    1.853     1.061   5.4% |-|
   Symmetrize density:               0.792     0.792   4.0% |-|
 Hamiltonian:                        5.576     0.176   0.9% |
  Atomic:                            0.006     0.006   0.0% |
   XC Correction:                    0.000     0.000   0.0% |
  Calculate atomic Hamiltonians:     0.466     0.466   2.4% ||
  Communicate:                       1.539     1.539   7.8% |--|
  Poisson:                           0.017     0.017   0.1% |
  XC 3D grid:                        3.373     3.373  17.2% |------|
 Orthonormalize:                     0.012     0.000   0.0% |
  calc_s_matrix:                     0.001     0.001   0.0% |
  inverse-cholesky:                  0.001     0.001   0.0% |
  projections:                       0.008     0.008   0.0% |
  rotate_psi_s:                      0.001     0.001   0.0% |
Set symmetry:                        0.005     0.005   0.0% |
Other:                               1.202     1.202   6.1% |-|
-----------------------------------------------------------
Total:                                        19.617 100.0%

Memory usage: 171.55 MiB
Date: Mon Dec  9 11:31:50 2019
