
  ___ ___ ___ _ _ _  
 |   |   |_  | | | | 
 | | | | | . | | | | 
 |__ |  _|___|_____|  19.8.1
 |___|_|             

User:   fadjar@cn0015
Date:   Mon Dec  9 11:27:39 2019
Arch:   x86_64
Pid:    13917
Python: 3.7.3
gpaw:   /app/anaconda3/lib/python3.7/site-packages/gpaw
_gpaw:  /app/anaconda3/bin/gpaw-python
ase:    /app/anaconda3/lib/python3.7/site-packages/ase-3.18.0-py3.7.egg/ase (version 3.18.0)
numpy:  /app/anaconda3/lib/python3.7/site-packages/numpy (version 1.16.4)
scipy:  /app/anaconda3/lib/python3.7/site-packages/scipy (version 1.3.0)
libxc:  4.3.4
units:  Angstrom and eV
cores:  20

Input parameters:
  kpts: [6 6 1]
  mode: {ecut: 700.0,
         gammacentered: False,
         name: pw}
  xc: PBE

System changes: positions, numbers, cell, pbc, initial_charges, initial_magmoms 

Initialize ...

Al-setup:
  name: Aluminium
  id: 0292cae29f5d6237e50f6abdd43a7bdd
  Z: 13
  valence: 3
  core: 10
  charge: 0.0
  file: /app/gpaw-setups-0.9.20000/Al.PBE.gz
  compensation charges: gauss, rc=0.34, lmax=2
  cutoffs: 1.91(filt), 2.36(core),
  valence states:
                energy  radius
    3s(2.00)    -7.753   1.085
    3p(1.00)    -2.712   1.085
    *s          19.459   1.085
    *p          24.499   1.085
    *d           0.000   1.085

  Using partial waves for Al as LCAO basis

C-setup:
  name: Carbon
  id: 4aa54d4b901d75f77cc0ea3eec22967b
  Z: 6
  valence: 4
  core: 2
  charge: 0.0
  file: /app/gpaw-setups-0.9.20000/C.PBE.gz
  compensation charges: gauss, rc=0.20, lmax=2
  cutoffs: 1.14(filt), 1.14(core),
  valence states:
                energy  radius
    2s(2.00)   -13.751   0.635
    2p(2.00)    -5.284   0.635
    *s          13.461   0.635
    *p          21.927   0.635
    *d           0.000   0.635

  Using partial waves for C as LCAO basis

O-setup:
  name: Oxygen
  id: 32ecd46bf208036f09c70b0ec9a88b78
  Z: 8
  valence: 6
  core: 2
  charge: 0.0
  file: /app/gpaw-setups-0.9.20000/O.PBE.gz
  compensation charges: gauss, rc=0.21, lmax=2
  cutoffs: 1.17(filt), 0.83(core),
  valence states:
                energy  radius
    2s(2.00)   -23.961   0.688
    2p(4.00)    -9.029   0.598
    *s           3.251   0.688
    *p          18.182   0.598
    *d           0.000   0.619

  Using partial waves for O as LCAO basis

Reference energy: -22878.750211

Spin-paired calculation

Occupation numbers:
  Fermi-Dirac: width=0.1000 eV

Convergence criteria:
  Maximum total energy change: 0.0005 eV / electron
  Maximum integral of absolute density change: 0.0001 electrons
  Maximum integral of absolute eigenstate change: 4e-08 eV^2
  Maximum number of iterations: 333

Symmetries present (total): 6

  ( 1  0  0)  ( 1 -1  0)  ( 0  1  0)  ( 0 -1  0)  (-1  1  0)  (-1  0  0)
  ( 0  1  0)  ( 0 -1  0)  ( 1  0  0)  ( 1 -1  0)  (-1  0  0)  (-1  1  0)
  ( 0  0  1)  ( 0  0  1)  ( 0  0  1)  ( 0  0  1)  ( 0  0  1)  ( 0  0  1)
Note: your k-points are not as symmetric as your crystal!

36 k-points: 6 x 6 x 1 Monkhorst-Pack grid
12 k-points in the irreducible part of the Brillouin zone
       k-points in crystal coordinates                weights
   0:     0.08333333   -0.08333333    0.00000000          2/36
   1:     0.08333333    0.08333333    0.00000000          2/36
   2:     0.25000000   -0.25000000    0.00000000          2/36
   3:     0.25000000   -0.08333333    0.00000000          4/36
   4:     0.25000000    0.08333333    0.00000000          4/36
   5:     0.25000000    0.25000000    0.00000000          2/36
   6:     0.41666667   -0.41666667    0.00000000          2/36
   7:     0.41666667   -0.25000000    0.00000000          4/36
   8:     0.41666667   -0.08333333    0.00000000          4/36
   9:     0.41666667    0.08333333    0.00000000          4/36
          ...
  11:     0.41666667    0.41666667    0.00000000          2/36

Wave functions: Plane wave expansion
  Cutoff energy: 700.000 eV
  Number of coefficients (min, max): 7319, 7384
  Pulay-stress correction: 0.000000 eV/Ang^3 (de/decut=0.000000)
  Using Numpy's FFT
  ScaLapack parameters: grid=1x1, blocksize=None
  Wavefunction extrapolation:
    Improved wavefunction reuse through dual PAW basis 

Eigensolver
   Davidson(niter=2, smin=None, normalize=True) 

Densities:
  Coarse grid: 18*18*160 grid
  Fine grid: 36*36*320 grid
  Total Charge: 0.000000 

Density mixing:
  Method: separate
  Backend: pulay
  Linear mixing parameter: 0.05
  Mixing with 5 old densities
  Damping of long wave oscillations: 50 

Hamiltonian:
  XC and Coulomb potentials evaluated on a 36*36*320 grid
  Using the PBE Exchange-Correlation functional
 

XC parameters: PBE with 2 nearest neighbor stencil

Memory estimate:
  Process memory now: 137.51 MiB
  Calculator: 17.35 MiB
    Density: 5.20 MiB
      Arrays: 2.06 MiB
      Localized functions: 2.35 MiB
      Mixer: 0.79 MiB
    Hamiltonian: 1.41 MiB
      Arrays: 1.34 MiB
      XC: 0.00 MiB
      Poisson: 0.00 MiB
      vbar: 0.06 MiB
    Wavefunctions: 10.75 MiB
      Arrays psit_nG: 5.41 MiB
      Eigensolver: 2.41 MiB
      Projections: 0.01 MiB
      Projectors: 0.81 MiB
      PW-descriptor: 2.11 MiB

Total number of cores used: 20
Parallelization over k-points: 4
Domain decomposition: 1 x 1 x 5

Number of atoms: 5
Number of atomic orbitals: 20
Number of bands in calculation: 16
Bands to converge: occupied states only
Number of valence electrons: 19

... initialized

Initializing position-dependent things.

Density initialized from atomic densities
Creating initial wave functions:
  16 bands from LCAO basis set

                    
                    
                    
                    
       O            
                    
       C            
                    
                    
       Al           
                    
        Al          
                    
                    
           Al       
                    
                    
                    
                    

Positions:
   0 Al     1.430477    0.825886   10.000000    ( 0.0000,  0.0000,  0.0000)
   1 Al     0.000000    1.651773   12.335959    ( 0.0000,  0.0000,  0.0000)
   2 Al     0.000000    0.000000   14.671918    ( 0.0000,  0.0000,  0.0000)
   3 C      0.000000    0.000000   16.471918    ( 0.0000,  0.0000,  0.0000)
   4 O      0.000000    0.000000   17.901918    ( 0.0000,  0.0000,  0.0000)

Unit cell:
           periodic     x           y           z      points  spacing
  1. axis:    yes    2.860954    0.000000    0.000000    18     0.1376
  2. axis:    yes    1.430477    2.477659    0.000000    18     0.1376
  3. axis:    no     0.000000    0.000000   24.671918   160     0.1542

  Lengths:   2.860954   2.860954  24.671918
  Angles:   90.000000  90.000000  60.000000

Effective grid spacing dv^(1/3) = 0.1500

                     log10-error:    total        iterations:
           time      wfs    density  energy       fermi  poisson
iter:   1  11:27:41  +0.85   +inf   -26.068456    3             
iter:   2  11:27:42  -0.99  -0.71   -25.433337    3             
iter:   3  11:27:42  -2.39  -0.83   -23.621363    3             
iter:   4  11:27:43  -3.03  -0.97   -23.577799    3             
iter:   5  11:27:43  -1.25  -0.99   -23.827879    30            
iter:   6  11:27:43  -1.52  -1.08   -23.459285    32            
iter:   7  11:27:44  -2.41  -1.35   -23.377318    3             
iter:   8  11:27:44  -3.12  -1.52   -23.331065    5             
iter:   9  11:27:45  -3.55  -1.72   -23.328498    4             
iter:  10  11:27:45  -3.13  -1.78   -23.315685    4             
iter:  11  11:27:46  -4.31  -2.05   -23.314830    3             
iter:  12  11:27:46  -3.90  -2.13   -23.312154    3             
iter:  13  11:27:47  -4.24  -2.50   -23.311873    3             
iter:  14  11:27:47  -5.05  -2.69   -23.311692    2             
iter:  15  11:27:47  -5.57  -2.85   -23.311619    3             
iter:  16  11:27:48  -5.09  -2.98   -23.311548    3             
iter:  17  11:27:48  -6.05  -3.23   -23.311537    3             
iter:  18  11:27:49  -6.57  -3.29   -23.311540    2             
iter:  19  11:27:49  -6.51  -3.38   -23.311535    2             
iter:  20  11:27:50  -6.58  -3.53   -23.311545    2             
iter:  21  11:27:50  -7.15  -3.70   -23.311544    2             
iter:  22  11:27:51  -7.27  -3.80   -23.311541    2             
iter:  23  11:27:51  -7.93  -4.04   -23.311542    2             

Converged after 23 iterations.

Dipole moment: (-0.044907, -0.025927, -0.230790) |e|*Ang

Energy contributions relative to reference atoms: (reference = -22878.750211)

Kinetic:        +14.259073
Potential:      -12.923636
External:        +0.000000
XC:             -24.827525
Entropy (-ST):   -0.076006
Local:           +0.218549
--------------------------
Free energy:    -23.349545
Extrapolated:   -23.311542

Fermi level: -1.41647

Showing only first 2 kpts
 Kpt  Band  Eigenvalues  Occupancy
  0     7     -3.12094    0.11111
  0     8     -2.01114    0.11082
  0     9      1.04731    0.00000
  0    10      1.81289    0.00000

  1     7     -3.02150    0.11111
  1     8     -2.25875    0.11109
  1     9      1.39482    0.00000
  1    10      1.78699    0.00000


No gap
Timing:                              incl.     excl.
-----------------------------------------------------------
Hamiltonian:                         0.176     0.006   0.0% |
 Atomic:                             0.000     0.000   0.0% |
  XC Correction:                     0.000     0.000   0.0% |
 Calculate atomic Hamiltonians:      0.012     0.012   0.1% |
 Communicate:                        0.065     0.065   0.5% |
 Initialize Hamiltonian:             0.000     0.000   0.0% |
 Poisson:                            0.000     0.000   0.0% |
 XC 3D grid:                         0.093     0.093   0.8% |
LCAO initialization:                 0.736     0.137   1.1% |
 LCAO eigensolver:                   0.157     0.000   0.0% |
  Calculate projections:             0.000     0.000   0.0% |
  DenseAtomicCorrection:             0.000     0.000   0.0% |
  Distribute overlap matrix:         0.156     0.156   1.3% ||
  Orbital Layouts:                   0.001     0.001   0.0% |
  Potential matrix:                  0.000     0.000   0.0% |
  Sum over cells:                    0.000     0.000   0.0% |
 LCAO to grid:                       0.332     0.332   2.8% ||
 Set positions (LCAO WFS):           0.110     0.069   0.6% |
  Basic WFS set positions:           0.001     0.001   0.0% |
  Basis functions set positions:     0.000     0.000   0.0% |
  P tci:                             0.000     0.000   0.0% |
  ST tci:                            0.012     0.012   0.1% |
  mktci:                             0.028     0.028   0.2% |
PWDescriptor:                        0.013     0.013   0.1% |
SCF-cycle:                          10.036     0.046   0.4% |
 Davidson:                           4.083     0.668   5.5% |-|
  Apply H:                           0.746     0.723   6.0% |-|
   HMM T:                            0.022     0.022   0.2% |
  Subspace diag:                     0.869     0.006   0.0% |
   calc_h_matrix:                    0.800     0.034   0.3% |
    Apply H:                         0.766     0.741   6.2% |-|
     HMM T:                          0.025     0.025   0.2% |
   diagonalize:                      0.025     0.025   0.2% |
   rotate_psi:                       0.038     0.038   0.3% |
  calc. matrices:                    1.690     0.208   1.7% ||
   Apply H:                          1.483     1.431  11.9% |----|
    HMM T:                           0.052     0.052   0.4% |
  diagonalize:                       0.058     0.058   0.5% |
  rotate_psi:                        0.052     0.052   0.4% |
 Density:                            2.000     0.000   0.0% |
  Atomic density matrices:           0.023     0.023   0.2% |
  Mix:                               0.969     0.969   8.0% |--|
  Multipole moments:                 0.003     0.003   0.0% |
  Pseudo density:                    1.005     0.509   4.2% |-|
   Symmetrize density:               0.495     0.495   4.1% |-|
 Hamiltonian:                        3.899     0.129   1.1% |
  Atomic:                            0.005     0.005   0.0% |
   XC Correction:                    0.000     0.000   0.0% |
  Calculate atomic Hamiltonians:     0.276     0.276   2.3% ||
  Communicate:                       1.413     1.413  11.7% |----|
  Poisson:                           0.010     0.010   0.1% |
  XC 3D grid:                        2.065     2.065  17.1% |------|
 Orthonormalize:                     0.008     0.000   0.0% |
  calc_s_matrix:                     0.001     0.001   0.0% |
  inverse-cholesky:                  0.001     0.001   0.0% |
  projections:                       0.004     0.004   0.0% |
  rotate_psi_s:                      0.001     0.001   0.0% |
Set symmetry:                        0.005     0.005   0.0% |
Other:                               1.076     1.076   8.9% |---|
-----------------------------------------------------------
Total:                                        12.042 100.0%

Memory usage: 139.61 MiB
Date: Mon Dec  9 11:27:51 2019
