
  ___ ___ ___ _ _ _  
 |   |   |_  | | | | 
 | | | | | . | | | | 
 |__ |  _|___|_____|  19.8.1
 |___|_|             

User:   fadjar@cn0015
Date:   Mon Dec  9 11:26:45 2019
Arch:   x86_64
Pid:    13917
Python: 3.7.3
gpaw:   /app/anaconda3/lib/python3.7/site-packages/gpaw
_gpaw:  /app/anaconda3/bin/gpaw-python
ase:    /app/anaconda3/lib/python3.7/site-packages/ase-3.18.0-py3.7.egg/ase (version 3.18.0)
numpy:  /app/anaconda3/lib/python3.7/site-packages/numpy (version 1.16.4)
scipy:  /app/anaconda3/lib/python3.7/site-packages/scipy (version 1.3.0)
libxc:  4.3.4
units:  Angstrom and eV
cores:  20

Input parameters:
  kpts: [6 6 1]
  mode: {ecut: 400.0,
         gammacentered: False,
         name: pw}
  xc: PBE

System changes: positions, numbers, cell, pbc, initial_charges, initial_magmoms 

Initialize ...

Al-setup:
  name: Aluminium
  id: 0292cae29f5d6237e50f6abdd43a7bdd
  Z: 13
  valence: 3
  core: 10
  charge: 0.0
  file: /app/gpaw-setups-0.9.20000/Al.PBE.gz
  compensation charges: gauss, rc=0.34, lmax=2
  cutoffs: 1.91(filt), 2.36(core),
  valence states:
                energy  radius
    3s(2.00)    -7.753   1.085
    3p(1.00)    -2.712   1.085
    *s          19.459   1.085
    *p          24.499   1.085
    *d           0.000   1.085

  Using partial waves for Al as LCAO basis

C-setup:
  name: Carbon
  id: 4aa54d4b901d75f77cc0ea3eec22967b
  Z: 6
  valence: 4
  core: 2
  charge: 0.0
  file: /app/gpaw-setups-0.9.20000/C.PBE.gz
  compensation charges: gauss, rc=0.20, lmax=2
  cutoffs: 1.14(filt), 1.14(core),
  valence states:
                energy  radius
    2s(2.00)   -13.751   0.635
    2p(2.00)    -5.284   0.635
    *s          13.461   0.635
    *p          21.927   0.635
    *d           0.000   0.635

  Using partial waves for C as LCAO basis

O-setup:
  name: Oxygen
  id: 32ecd46bf208036f09c70b0ec9a88b78
  Z: 8
  valence: 6
  core: 2
  charge: 0.0
  file: /app/gpaw-setups-0.9.20000/O.PBE.gz
  compensation charges: gauss, rc=0.21, lmax=2
  cutoffs: 1.17(filt), 0.83(core),
  valence states:
                energy  radius
    2s(2.00)   -23.961   0.688
    2p(4.00)    -9.029   0.598
    *s           3.251   0.688
    *p          18.182   0.598
    *d           0.000   0.619

  Using partial waves for O as LCAO basis

Reference energy: -22878.750211

Spin-paired calculation

Occupation numbers:
  Fermi-Dirac: width=0.1000 eV

Convergence criteria:
  Maximum total energy change: 0.0005 eV / electron
  Maximum integral of absolute density change: 0.0001 electrons
  Maximum integral of absolute eigenstate change: 4e-08 eV^2
  Maximum number of iterations: 333

Symmetries present (total): 6

  ( 1  0  0)  ( 1 -1  0)  ( 0  1  0)  ( 0 -1  0)  (-1  1  0)  (-1  0  0)
  ( 0  1  0)  ( 0 -1  0)  ( 1  0  0)  ( 1 -1  0)  (-1  0  0)  (-1  1  0)
  ( 0  0  1)  ( 0  0  1)  ( 0  0  1)  ( 0  0  1)  ( 0  0  1)  ( 0  0  1)
Note: your k-points are not as symmetric as your crystal!

36 k-points: 6 x 6 x 1 Monkhorst-Pack grid
12 k-points in the irreducible part of the Brillouin zone
       k-points in crystal coordinates                weights
   0:     0.08333333   -0.08333333    0.00000000          2/36
   1:     0.08333333    0.08333333    0.00000000          2/36
   2:     0.25000000   -0.25000000    0.00000000          2/36
   3:     0.25000000   -0.08333333    0.00000000          4/36
   4:     0.25000000    0.08333333    0.00000000          4/36
   5:     0.25000000    0.25000000    0.00000000          2/36
   6:     0.41666667   -0.41666667    0.00000000          2/36
   7:     0.41666667   -0.25000000    0.00000000          4/36
   8:     0.41666667   -0.08333333    0.00000000          4/36
   9:     0.41666667    0.08333333    0.00000000          4/36
          ...
  11:     0.41666667    0.41666667    0.00000000          2/36

Wave functions: Plane wave expansion
  Cutoff energy: 400.000 eV
  Number of coefficients (min, max): 3144, 3198
  Pulay-stress correction: 0.000000 eV/Ang^3 (de/decut=0.000000)
  Using Numpy's FFT
  ScaLapack parameters: grid=1x1, blocksize=None
  Wavefunction extrapolation:
    Improved wavefunction reuse through dual PAW basis 

Eigensolver
   Davidson(niter=2, smin=None, normalize=True) 

Densities:
  Coarse grid: 14*14*120 grid
  Fine grid: 28*28*240 grid
  Total Charge: 0.000000 

Density mixing:
  Method: separate
  Backend: pulay
  Linear mixing parameter: 0.05
  Mixing with 5 old densities
  Damping of long wave oscillations: 50 

Hamiltonian:
  XC and Coulomb potentials evaluated on a 28*28*240 grid
  Using the PBE Exchange-Correlation functional
 

XC parameters: PBE with 2 nearest neighbor stencil

Memory estimate:
  Process memory now: 105.15 MiB
  Calculator: 7.67 MiB
    Density: 2.31 MiB
      Arrays: 0.93 MiB
      Localized functions: 1.01 MiB
      Mixer: 0.36 MiB
    Hamiltonian: 0.64 MiB
      Arrays: 0.61 MiB
      XC: 0.00 MiB
      Poisson: 0.00 MiB
      vbar: 0.03 MiB
    Wavefunctions: 4.72 MiB
      Arrays psit_nG: 2.34 MiB
      Eigensolver: 1.06 MiB
      Projections: 0.01 MiB
      Projectors: 0.35 MiB
      PW-descriptor: 0.96 MiB

Total number of cores used: 20
Parallelization over k-points: 4
Domain decomposition: 1 x 1 x 5

Number of atoms: 5
Number of atomic orbitals: 20
Number of bands in calculation: 16
Bands to converge: occupied states only
Number of valence electrons: 19

... initialized

Initializing position-dependent things.

Density initialized from atomic densities
Creating initial wave functions:
  16 bands from LCAO basis set

                    
                    
                    
                    
       O            
                    
       C            
                    
                    
       Al           
                    
        Al          
                    
                    
           Al       
                    
                    
                    
                    

Positions:
   0 Al     1.430477    0.825886   10.000000    ( 0.0000,  0.0000,  0.0000)
   1 Al     0.000000    1.651773   12.335959    ( 0.0000,  0.0000,  0.0000)
   2 Al     0.000000    0.000000   14.671918    ( 0.0000,  0.0000,  0.0000)
   3 C      0.000000    0.000000   16.471918    ( 0.0000,  0.0000,  0.0000)
   4 O      0.000000    0.000000   17.901918    ( 0.0000,  0.0000,  0.0000)

Unit cell:
           periodic     x           y           z      points  spacing
  1. axis:    yes    2.860954    0.000000    0.000000    14     0.1770
  2. axis:    yes    1.430477    2.477659    0.000000    14     0.1770
  3. axis:    no     0.000000    0.000000   24.671918   120     0.2056

  Lengths:   2.860954   2.860954  24.671918
  Angles:   90.000000  90.000000  60.000000

Effective grid spacing dv^(1/3) = 0.1952

                     log10-error:    total        iterations:
           time      wfs    density  energy       fermi  poisson
iter:   1  11:26:46  +0.79   +inf   -24.726518    2             
iter:   2  11:26:46  -0.78  -0.66   -24.830918    3             
iter:   3  11:26:47  -2.37  -0.74   -21.776669    3             
iter:   4  11:26:47  -3.13  -0.96   -21.736022    3             
iter:   5  11:26:47  -1.20  -0.98   -22.194198    4             
iter:   6  11:26:47  -1.78  -1.03   -21.553946    4             
iter:   7  11:26:48  -2.25  -1.39   -21.518287    4             
iter:   8  11:26:48  -2.96  -1.56   -21.481030    4             
iter:   9  11:26:48  -4.14  -1.77   -21.478664    3             
iter:  10  11:26:48  -3.41  -1.81   -21.472287    4             
iter:  11  11:26:49  -4.28  -1.99   -21.470626    3             
iter:  12  11:26:49  -4.84  -2.14   -21.470498    3             
iter:  13  11:26:49  -4.23  -2.21   -21.469063    3             
iter:  14  11:26:49  -3.92  -2.41   -21.468341    3             
iter:  15  11:26:50  -4.46  -2.71   -21.468086    3             
iter:  16  11:26:50  -5.51  -2.98   -21.468066    2             
iter:  17  11:26:50  -5.77  -3.02   -21.468029    2             
iter:  18  11:26:50  -6.38  -3.16   -21.468018    2             
iter:  19  11:26:51  -6.50  -3.27   -21.468021    3             
iter:  20  11:26:51  -7.02  -3.44   -21.468018    2             
iter:  21  11:26:51  -6.44  -3.53   -21.468020    2             
iter:  22  11:26:51  -7.19  -3.70   -21.468020    1             
iter:  23  11:26:52  -7.26  -3.75   -21.468020    2             
iter:  24  11:26:52  -7.69  -3.88   -21.468020    2             
iter:  25  11:26:52  -7.86  -3.99   -21.468022    2             
iter:  26  11:26:52  -8.42  -4.10   -21.468022    2             

Converged after 26 iterations.

Dipole moment: (-0.044768, -0.025847, -0.221521) |e|*Ang

Energy contributions relative to reference atoms: (reference = -22878.750211)

Kinetic:         +4.633573
Potential:       -1.781134
External:        +0.000000
XC:             -24.190835
Entropy (-ST):   -0.075497
Local:           -0.091878
--------------------------
Free energy:    -21.505770
Extrapolated:   -21.468022

Fermi level: -1.37646

Showing only first 2 kpts
 Kpt  Band  Eigenvalues  Occupancy
  0     7     -3.10872    0.11111
  0     8     -1.97296    0.11083
  0     9      1.07532    0.00000
  0    10      1.84966    0.00000

  1     7     -2.99677    0.11111
  1     8     -2.22079    0.11109
  1     9      1.42952    0.00000
  1    10      1.82392    0.00000


No gap
Timing:                              incl.     excl.
-----------------------------------------------------------
Hamiltonian:                         0.116     0.003   0.0% |
 Atomic:                             0.000     0.000   0.0% |
  XC Correction:                     0.000     0.000   0.0% |
 Calculate atomic Hamiltonians:      0.005     0.005   0.1% |
 Communicate:                        0.065     0.065   0.8% |
 Initialize Hamiltonian:             0.000     0.000   0.0% |
 Poisson:                            0.000     0.000   0.0% |
 XC 3D grid:                         0.042     0.042   0.5% |
LCAO initialization:                 0.469     0.137   1.8% ||
 LCAO eigensolver:                   0.079     0.000   0.0% |
  Calculate projections:             0.000     0.000   0.0% |
  DenseAtomicCorrection:             0.000     0.000   0.0% |
  Distribute overlap matrix:         0.078     0.078   1.0% |
  Orbital Layouts:                   0.001     0.001   0.0% |
  Potential matrix:                  0.000     0.000   0.0% |
  Sum over cells:                    0.000     0.000   0.0% |
 LCAO to grid:                       0.146     0.146   1.9% ||
 Set positions (LCAO WFS):           0.108     0.066   0.9% |
  Basic WFS set positions:           0.001     0.001   0.0% |
  Basis functions set positions:     0.000     0.000   0.0% |
  P tci:                             0.000     0.000   0.0% |
  ST tci:                            0.012     0.012   0.2% |
  mktci:                             0.028     0.028   0.4% |
PWDescriptor:                        0.005     0.005   0.1% |
SCF-cycle:                           6.202     0.095   1.2% |
 Davidson:                           2.161     0.377   4.9% |-|
  Apply H:                           0.365     0.357   4.6% |-|
   HMM T:                            0.008     0.008   0.1% |
  Subspace diag:                     0.441     0.006   0.1% |
   calc_h_matrix:                    0.393     0.018   0.2% |
    Apply H:                         0.375     0.365   4.7% |-|
     HMM T:                          0.010     0.010   0.1% |
   diagonalize:                      0.025     0.025   0.3% |
   rotate_psi:                       0.017     0.017   0.2% |
  calc. matrices:                    0.885     0.148   1.9% ||
   Apply H:                          0.738     0.720   9.3% |---|
    HMM T:                           0.018     0.018   0.2% |
  diagonalize:                       0.063     0.063   0.8% |
  rotate_psi:                        0.029     0.029   0.4% |
 Density:                            1.043     0.000   0.0% |
  Atomic density matrices:           0.026     0.026   0.3% |
  Mix:                               0.512     0.512   6.6% |--|
  Multipole moments:                 0.004     0.004   0.0% |
  Pseudo density:                    0.501     0.241   3.1% ||
   Symmetrize density:               0.260     0.260   3.4% ||
 Hamiltonian:                        2.898     0.073   0.9% |
  Atomic:                            0.006     0.006   0.1% |
   XC Correction:                    0.000     0.000   0.0% |
  Calculate atomic Hamiltonians:     0.141     0.141   1.8% ||
  Communicate:                       1.607     1.607  20.8% |-------|
  Poisson:                           0.005     0.005   0.1% |
  XC 3D grid:                        1.066     1.066  13.8% |-----|
 Orthonormalize:                     0.004     0.000   0.0% |
  calc_s_matrix:                     0.000     0.000   0.0% |
  inverse-cholesky:                  0.001     0.001   0.0% |
  projections:                       0.002     0.002   0.0% |
  rotate_psi_s:                      0.000     0.000   0.0% |
Set symmetry:                        0.005     0.005   0.1% |
Other:                               0.933     0.933  12.1% |----|
-----------------------------------------------------------
Total:                                         7.730 100.0%

Memory usage: 108.86 MiB
Date: Mon Dec  9 11:26:52 2019
