
  ___ ___ ___ _ _ _  
 |   |   |_  | | | | 
 | | | | | . | | | | 
 |__ |  _|___|_____|  19.8.1
 |___|_|             

User:   fadjar@cn0015
Date:   Mon Dec  9 11:26:52 2019
Arch:   x86_64
Pid:    13917
Python: 3.7.3
gpaw:   /app/anaconda3/lib/python3.7/site-packages/gpaw
_gpaw:  /app/anaconda3/bin/gpaw-python
ase:    /app/anaconda3/lib/python3.7/site-packages/ase-3.18.0-py3.7.egg/ase (version 3.18.0)
numpy:  /app/anaconda3/lib/python3.7/site-packages/numpy (version 1.16.4)
scipy:  /app/anaconda3/lib/python3.7/site-packages/scipy (version 1.3.0)
libxc:  4.3.4
units:  Angstrom and eV
cores:  20

Input parameters:
  kpts: [6 6 1]
  mode: {ecut: 450.00000000000006,
         gammacentered: False,
         name: pw}
  xc: PBE

System changes: positions, numbers, cell, pbc, initial_charges, initial_magmoms 

Initialize ...

Al-setup:
  name: Aluminium
  id: 0292cae29f5d6237e50f6abdd43a7bdd
  Z: 13
  valence: 3
  core: 10
  charge: 0.0
  file: /app/gpaw-setups-0.9.20000/Al.PBE.gz
  compensation charges: gauss, rc=0.34, lmax=2
  cutoffs: 1.91(filt), 2.36(core),
  valence states:
                energy  radius
    3s(2.00)    -7.753   1.085
    3p(1.00)    -2.712   1.085
    *s          19.459   1.085
    *p          24.499   1.085
    *d           0.000   1.085

  Using partial waves for Al as LCAO basis

C-setup:
  name: Carbon
  id: 4aa54d4b901d75f77cc0ea3eec22967b
  Z: 6
  valence: 4
  core: 2
  charge: 0.0
  file: /app/gpaw-setups-0.9.20000/C.PBE.gz
  compensation charges: gauss, rc=0.20, lmax=2
  cutoffs: 1.14(filt), 1.14(core),
  valence states:
                energy  radius
    2s(2.00)   -13.751   0.635
    2p(2.00)    -5.284   0.635
    *s          13.461   0.635
    *p          21.927   0.635
    *d           0.000   0.635

  Using partial waves for C as LCAO basis

O-setup:
  name: Oxygen
  id: 32ecd46bf208036f09c70b0ec9a88b78
  Z: 8
  valence: 6
  core: 2
  charge: 0.0
  file: /app/gpaw-setups-0.9.20000/O.PBE.gz
  compensation charges: gauss, rc=0.21, lmax=2
  cutoffs: 1.17(filt), 0.83(core),
  valence states:
                energy  radius
    2s(2.00)   -23.961   0.688
    2p(4.00)    -9.029   0.598
    *s           3.251   0.688
    *p          18.182   0.598
    *d           0.000   0.619

  Using partial waves for O as LCAO basis

Reference energy: -22878.750211

Spin-paired calculation

Occupation numbers:
  Fermi-Dirac: width=0.1000 eV

Convergence criteria:
  Maximum total energy change: 0.0005 eV / electron
  Maximum integral of absolute density change: 0.0001 electrons
  Maximum integral of absolute eigenstate change: 4e-08 eV^2
  Maximum number of iterations: 333

Symmetries present (total): 6

  ( 1  0  0)  ( 1 -1  0)  ( 0  1  0)  ( 0 -1  0)  (-1  1  0)  (-1  0  0)
  ( 0  1  0)  ( 0 -1  0)  ( 1  0  0)  ( 1 -1  0)  (-1  0  0)  (-1  1  0)
  ( 0  0  1)  ( 0  0  1)  ( 0  0  1)  ( 0  0  1)  ( 0  0  1)  ( 0  0  1)
Note: your k-points are not as symmetric as your crystal!

36 k-points: 6 x 6 x 1 Monkhorst-Pack grid
12 k-points in the irreducible part of the Brillouin zone
       k-points in crystal coordinates                weights
   0:     0.08333333   -0.08333333    0.00000000          2/36
   1:     0.08333333    0.08333333    0.00000000          2/36
   2:     0.25000000   -0.25000000    0.00000000          2/36
   3:     0.25000000   -0.08333333    0.00000000          4/36
   4:     0.25000000    0.08333333    0.00000000          4/36
   5:     0.25000000    0.25000000    0.00000000          2/36
   6:     0.41666667   -0.41666667    0.00000000          2/36
   7:     0.41666667   -0.25000000    0.00000000          4/36
   8:     0.41666667   -0.08333333    0.00000000          4/36
   9:     0.41666667    0.08333333    0.00000000          4/36
          ...
  11:     0.41666667    0.41666667    0.00000000          2/36

Wave functions: Plane wave expansion
  Cutoff energy: 450.000 eV
  Number of coefficients (min, max): 3727, 3847
  Pulay-stress correction: 0.000000 eV/Ang^3 (de/decut=0.000000)
  Using Numpy's FFT
  ScaLapack parameters: grid=1x1, blocksize=None
  Wavefunction extrapolation:
    Improved wavefunction reuse through dual PAW basis 

Eigensolver
   Davidson(niter=2, smin=None, normalize=True) 

Densities:
  Coarse grid: 14*14*125 grid
  Fine grid: 28*28*250 grid
  Total Charge: 0.000000 

Density mixing:
  Method: separate
  Backend: pulay
  Linear mixing parameter: 0.05
  Mixing with 5 old densities
  Damping of long wave oscillations: 50 

Hamiltonian:
  XC and Coulomb potentials evaluated on a 28*28*250 grid
  Using the PBE Exchange-Correlation functional
 

XC parameters: PBE with 2 nearest neighbor stencil

Memory estimate:
  Process memory now: 108.86 MiB
  Calculator: 8.75 MiB
    Density: 2.55 MiB
      Arrays: 0.97 MiB
      Localized functions: 1.20 MiB
      Mixer: 0.37 MiB
    Hamiltonian: 0.67 MiB
      Arrays: 0.64 MiB
      XC: 0.00 MiB
      Poisson: 0.00 MiB
      vbar: 0.03 MiB
    Wavefunctions: 5.53 MiB
      Arrays psit_nG: 2.82 MiB
      Eigensolver: 1.27 MiB
      Projections: 0.01 MiB
      Projectors: 0.42 MiB
      PW-descriptor: 1.01 MiB

Total number of cores used: 20
Parallelization over k-points: 4
Domain decomposition: 1 x 1 x 5

Number of atoms: 5
Number of atomic orbitals: 20
Number of bands in calculation: 16
Bands to converge: occupied states only
Number of valence electrons: 19

... initialized

Initializing position-dependent things.

Density initialized from atomic densities
Creating initial wave functions:
  16 bands from LCAO basis set

                    
                    
                    
                    
       O            
                    
       C            
                    
                    
       Al           
                    
        Al          
                    
                    
           Al       
                    
                    
                    
                    

Positions:
   0 Al     1.430477    0.825886   10.000000    ( 0.0000,  0.0000,  0.0000)
   1 Al     0.000000    1.651773   12.335959    ( 0.0000,  0.0000,  0.0000)
   2 Al     0.000000    0.000000   14.671918    ( 0.0000,  0.0000,  0.0000)
   3 C      0.000000    0.000000   16.471918    ( 0.0000,  0.0000,  0.0000)
   4 O      0.000000    0.000000   17.901918    ( 0.0000,  0.0000,  0.0000)

Unit cell:
           periodic     x           y           z      points  spacing
  1. axis:    yes    2.860954    0.000000    0.000000    14     0.1770
  2. axis:    yes    1.430477    2.477659    0.000000    14     0.1770
  3. axis:    no     0.000000    0.000000   24.671918   125     0.1974

  Lengths:   2.860954   2.860954  24.671918
  Angles:   90.000000  90.000000  60.000000

Effective grid spacing dv^(1/3) = 0.1925

                     log10-error:    total        iterations:
           time      wfs    density  energy       fermi  poisson
iter:   1  11:26:54  +0.79   +inf   -25.387508    3             
iter:   2  11:26:54  -0.89  -0.68   -25.130899    3             
iter:   3  11:26:54  -2.41  -0.79   -22.732164    2             
iter:   4  11:26:55  -3.12  -0.96   -22.691570    3             
iter:   5  11:26:55  -1.24  -0.98   -23.042999    4             
iter:   6  11:26:55  -1.63  -1.06   -22.516169    29            
iter:   7  11:26:56  -2.36  -1.38   -22.478615    3             
iter:   8  11:26:56  -3.26  -1.53   -22.436663    5             
iter:   9  11:26:56  -3.42  -1.76   -22.434412    4             
iter:  10  11:26:56  -3.50  -1.85   -22.424762    4             
iter:  11  11:26:57  -4.26  -2.11   -22.424126    3             
iter:  12  11:26:57  -4.38  -2.17   -22.423365    3             
iter:  13  11:26:57  -3.97  -2.28   -22.421917    2             
iter:  14  11:26:57  -4.69  -2.70   -22.421779    3             
iter:  15  11:26:58  -5.35  -2.81   -22.421732    3             
iter:  16  11:26:58  -5.32  -2.88   -22.421611    3             
iter:  17  11:26:58  -6.21  -3.31   -22.421610    2             
iter:  18  11:26:58  -6.41  -3.33   -22.421617    2             
iter:  19  11:26:59  -6.48  -3.47   -22.421616    2             
iter:  20  11:26:59  -7.05  -3.69   -22.421616    2             
iter:  21  11:26:59  -7.15  -3.79   -22.421613    2             
iter:  22  11:26:59  -7.50  -3.98   -22.421613    2             
iter:  23  11:27:00  -7.98  -4.18   -22.421613    2             

Converged after 23 iterations.

Dipole moment: (-0.045042, -0.026005, -0.227455) |e|*Ang

Energy contributions relative to reference atoms: (reference = -22878.750211)

Kinetic:         +9.066628
Potential:       -6.907077
External:        +0.000000
XC:             -24.522914
Entropy (-ST):   -0.076234
Local:           -0.020134
--------------------------
Free energy:    -22.459730
Extrapolated:   -22.421613

Fermi level: -1.40133

Showing only first 2 kpts
 Kpt  Band  Eigenvalues  Occupancy
  0     7     -3.08831    0.11111
  0     8     -1.99572    0.11082
  0     9      1.07439    0.00000
  0    10      1.83138    0.00000

  1     7     -2.98257    0.11111
  1     8     -2.24338    0.11109
  1     9      1.40990    0.00000
  1    10      1.82019    0.00000


No gap
Timing:                              incl.     excl.
-----------------------------------------------------------
Hamiltonian:                         0.118     0.003   0.0% |
 Atomic:                             0.000     0.000   0.0% |
  XC Correction:                     0.000     0.000   0.0% |
 Calculate atomic Hamiltonians:      0.005     0.005   0.1% |
 Communicate:                        0.065     0.065   0.9% |
 Initialize Hamiltonian:             0.000     0.000   0.0% |
 Poisson:                            0.000     0.000   0.0% |
 XC 3D grid:                         0.044     0.044   0.6% |
LCAO initialization:                 0.480     0.139   1.9% ||
 LCAO eigensolver:                   0.081     0.000   0.0% |
  Calculate projections:             0.000     0.000   0.0% |
  DenseAtomicCorrection:             0.000     0.000   0.0% |
  Distribute overlap matrix:         0.080     0.080   1.1% |
  Orbital Layouts:                   0.001     0.001   0.0% |
  Potential matrix:                  0.000     0.000   0.0% |
  Sum over cells:                    0.000     0.000   0.0% |
 LCAO to grid:                       0.154     0.154   2.1% ||
 Set positions (LCAO WFS):           0.105     0.063   0.9% |
  Basic WFS set positions:           0.001     0.001   0.0% |
  Basis functions set positions:     0.000     0.000   0.0% |
  P tci:                             0.000     0.000   0.0% |
  ST tci:                            0.012     0.012   0.2% |
  mktci:                             0.028     0.028   0.4% |
PWDescriptor:                        0.006     0.006   0.1% |
SCF-cycle:                           5.799     0.079   1.1% |
 Davidson:                           2.088     0.365   5.0% |-|
  Apply H:                           0.356     0.347   4.7% |-|
   HMM T:                            0.008     0.008   0.1% |
  Subspace diag:                     0.428     0.006   0.1% |
   calc_h_matrix:                    0.383     0.017   0.2% |
    Apply H:                         0.366     0.356   4.8% |-|
     HMM T:                          0.010     0.010   0.1% |
   diagonalize:                      0.022     0.022   0.3% |
   rotate_psi:                       0.017     0.017   0.2% |
  calc. matrices:                    0.854     0.142   1.9% ||
   Apply H:                          0.713     0.694   9.4% |---|
    HMM T:                           0.018     0.018   0.3% |
  diagonalize:                       0.056     0.056   0.8% |
  rotate_psi:                        0.029     0.029   0.4% |
 Density:                            0.994     0.000   0.0% |
  Atomic density matrices:           0.023     0.023   0.3% |
  Mix:                               0.490     0.490   6.7% |--|
  Multipole moments:                 0.003     0.003   0.0% |
  Pseudo density:                    0.478     0.238   3.2% ||
   Symmetrize density:               0.240     0.240   3.3% ||
 Hamiltonian:                        2.633     0.070   1.0% |
  Atomic:                            0.005     0.005   0.1% |
   XC Correction:                    0.000     0.000   0.0% |
  Calculate atomic Hamiltonians:     0.145     0.145   2.0% ||
  Communicate:                       1.422     1.422  19.3% |-------|
  Poisson:                           0.005     0.005   0.1% |
  XC 3D grid:                        0.986     0.986  13.4% |----|
 Orthonormalize:                     0.005     0.000   0.0% |
  calc_s_matrix:                     0.001     0.001   0.0% |
  inverse-cholesky:                  0.001     0.001   0.0% |
  projections:                       0.002     0.002   0.0% |
  rotate_psi_s:                      0.000     0.000   0.0% |
Set symmetry:                        0.005     0.005   0.1% |
Other:                               0.945     0.945  12.8% |----|
-----------------------------------------------------------
Total:                                         7.352 100.0%

Memory usage: 111.96 MiB
Date: Mon Dec  9 11:27:00 2019
