
  ___ ___ ___ _ _ _  
 |   |   |_  | | | | 
 | | | | | . | | | | 
 |__ |  _|___|_____|  19.8.1
 |___|_|             

User:   fadjar@cn0015
Date:   Mon Dec  9 11:27:00 2019
Arch:   x86_64
Pid:    13917
Python: 3.7.3
gpaw:   /app/anaconda3/lib/python3.7/site-packages/gpaw
_gpaw:  /app/anaconda3/bin/gpaw-python
ase:    /app/anaconda3/lib/python3.7/site-packages/ase-3.18.0-py3.7.egg/ase (version 3.18.0)
numpy:  /app/anaconda3/lib/python3.7/site-packages/numpy (version 1.16.4)
scipy:  /app/anaconda3/lib/python3.7/site-packages/scipy (version 1.3.0)
libxc:  4.3.4
units:  Angstrom and eV
cores:  20

Input parameters:
  kpts: [6 6 1]
  mode: {ecut: 500.0,
         gammacentered: False,
         name: pw}
  xc: PBE

System changes: positions, numbers, cell, pbc, initial_charges, initial_magmoms 

Initialize ...

Al-setup:
  name: Aluminium
  id: 0292cae29f5d6237e50f6abdd43a7bdd
  Z: 13
  valence: 3
  core: 10
  charge: 0.0
  file: /app/gpaw-setups-0.9.20000/Al.PBE.gz
  compensation charges: gauss, rc=0.34, lmax=2
  cutoffs: 1.91(filt), 2.36(core),
  valence states:
                energy  radius
    3s(2.00)    -7.753   1.085
    3p(1.00)    -2.712   1.085
    *s          19.459   1.085
    *p          24.499   1.085
    *d           0.000   1.085

  Using partial waves for Al as LCAO basis

C-setup:
  name: Carbon
  id: 4aa54d4b901d75f77cc0ea3eec22967b
  Z: 6
  valence: 4
  core: 2
  charge: 0.0
  file: /app/gpaw-setups-0.9.20000/C.PBE.gz
  compensation charges: gauss, rc=0.20, lmax=2
  cutoffs: 1.14(filt), 1.14(core),
  valence states:
                energy  radius
    2s(2.00)   -13.751   0.635
    2p(2.00)    -5.284   0.635
    *s          13.461   0.635
    *p          21.927   0.635
    *d           0.000   0.635

  Using partial waves for C as LCAO basis

O-setup:
  name: Oxygen
  id: 32ecd46bf208036f09c70b0ec9a88b78
  Z: 8
  valence: 6
  core: 2
  charge: 0.0
  file: /app/gpaw-setups-0.9.20000/O.PBE.gz
  compensation charges: gauss, rc=0.21, lmax=2
  cutoffs: 1.17(filt), 0.83(core),
  valence states:
                energy  radius
    2s(2.00)   -23.961   0.688
    2p(4.00)    -9.029   0.598
    *s           3.251   0.688
    *p          18.182   0.598
    *d           0.000   0.619

  Using partial waves for O as LCAO basis

Reference energy: -22878.750211

Spin-paired calculation

Occupation numbers:
  Fermi-Dirac: width=0.1000 eV

Convergence criteria:
  Maximum total energy change: 0.0005 eV / electron
  Maximum integral of absolute density change: 0.0001 electrons
  Maximum integral of absolute eigenstate change: 4e-08 eV^2
  Maximum number of iterations: 333

Symmetries present (total): 6

  ( 1  0  0)  ( 1 -1  0)  ( 0  1  0)  ( 0 -1  0)  (-1  1  0)  (-1  0  0)
  ( 0  1  0)  ( 0 -1  0)  ( 1  0  0)  ( 1 -1  0)  (-1  0  0)  (-1  1  0)
  ( 0  0  1)  ( 0  0  1)  ( 0  0  1)  ( 0  0  1)  ( 0  0  1)  ( 0  0  1)
Note: your k-points are not as symmetric as your crystal!

36 k-points: 6 x 6 x 1 Monkhorst-Pack grid
12 k-points in the irreducible part of the Brillouin zone
       k-points in crystal coordinates                weights
   0:     0.08333333   -0.08333333    0.00000000          2/36
   1:     0.08333333    0.08333333    0.00000000          2/36
   2:     0.25000000   -0.25000000    0.00000000          2/36
   3:     0.25000000   -0.08333333    0.00000000          4/36
   4:     0.25000000    0.08333333    0.00000000          4/36
   5:     0.25000000    0.25000000    0.00000000          2/36
   6:     0.41666667   -0.41666667    0.00000000          2/36
   7:     0.41666667   -0.25000000    0.00000000          4/36
   8:     0.41666667   -0.08333333    0.00000000          4/36
   9:     0.41666667    0.08333333    0.00000000          4/36
          ...
  11:     0.41666667    0.41666667    0.00000000          2/36

Wave functions: Plane wave expansion
  Cutoff energy: 500.000 eV
  Number of coefficients (min, max): 4405, 4469
  Pulay-stress correction: 0.000000 eV/Ang^3 (de/decut=0.000000)
  Using Numpy's FFT
  ScaLapack parameters: grid=1x1, blocksize=None
  Wavefunction extrapolation:
    Improved wavefunction reuse through dual PAW basis 

Eigensolver
   Davidson(niter=2, smin=None, normalize=True) 

Densities:
  Coarse grid: 15*15*128 grid
  Fine grid: 30*30*256 grid
  Total Charge: 0.000000 

Density mixing:
  Method: separate
  Backend: pulay
  Linear mixing parameter: 0.05
  Mixing with 5 old densities
  Damping of long wave oscillations: 50 

Hamiltonian:
  XC and Coulomb potentials evaluated on a 30*30*256 grid
  Using the PBE Exchange-Correlation functional
 

XC parameters: PBE with 2 nearest neighbor stencil

Memory estimate:
  Process memory now: 112.00 MiB
  Calculator: 10.25 MiB
    Density: 3.03 MiB
      Arrays: 1.16 MiB
      Localized functions: 1.42 MiB
      Mixer: 0.45 MiB
    Hamiltonian: 0.80 MiB
      Arrays: 0.76 MiB
      XC: 0.00 MiB
      Poisson: 0.00 MiB
      vbar: 0.04 MiB
    Wavefunctions: 6.43 MiB
      Arrays psit_nG: 3.27 MiB
      Eigensolver: 1.47 MiB
      Projections: 0.01 MiB
      Projectors: 0.49 MiB
      PW-descriptor: 1.18 MiB

Total number of cores used: 20
Parallelization over k-points: 4
Domain decomposition: 1 x 1 x 5

Number of atoms: 5
Number of atomic orbitals: 20
Number of bands in calculation: 16
Bands to converge: occupied states only
Number of valence electrons: 19

... initialized

Initializing position-dependent things.

Density initialized from atomic densities
Creating initial wave functions:
  16 bands from LCAO basis set

                    
                    
                    
                    
       O            
                    
       C            
                    
                    
       Al           
                    
        Al          
                    
                    
           Al       
                    
                    
                    
                    

Positions:
   0 Al     1.430477    0.825886   10.000000    ( 0.0000,  0.0000,  0.0000)
   1 Al     0.000000    1.651773   12.335959    ( 0.0000,  0.0000,  0.0000)
   2 Al     0.000000    0.000000   14.671918    ( 0.0000,  0.0000,  0.0000)
   3 C      0.000000    0.000000   16.471918    ( 0.0000,  0.0000,  0.0000)
   4 O      0.000000    0.000000   17.901918    ( 0.0000,  0.0000,  0.0000)

Unit cell:
           periodic     x           y           z      points  spacing
  1. axis:    yes    2.860954    0.000000    0.000000    15     0.1652
  2. axis:    yes    1.430477    2.477659    0.000000    15     0.1652
  3. axis:    no     0.000000    0.000000   24.671918   128     0.1927

  Lengths:   2.860954   2.860954  24.671918
  Angles:   90.000000  90.000000  60.000000

Effective grid spacing dv^(1/3) = 0.1824

                     log10-error:    total        iterations:
           time      wfs    density  energy       fermi  poisson
iter:   1  11:27:01  +0.80   +inf   -25.748837    3             
iter:   2  11:27:02  -0.95  -0.70   -25.277625    3             
iter:   3  11:27:02  -2.42  -0.81   -23.208025    3             
iter:   4  11:27:02  -3.09  -0.96   -23.167749    2             
iter:   5  11:27:02  -1.26  -0.98   -23.451001    30            
iter:   6  11:27:03  -1.58  -1.07   -23.020026    30            
iter:   7  11:27:03  -2.41  -1.36   -22.959293    3             
iter:   8  11:27:03  -3.16  -1.53   -22.914998    5             
iter:   9  11:27:04  -3.61  -1.74   -22.912277    4             
iter:  10  11:27:04  -3.30  -1.81   -22.900598    4             
iter:  11  11:27:04  -4.34  -2.08   -22.900526    2             
iter:  12  11:27:04  -4.15  -2.14   -22.898852    3             
iter:  13  11:27:05  -4.57  -2.40   -22.898334    3             
iter:  14  11:27:05  -4.56  -2.59   -22.897963    3             
iter:  15  11:27:05  -5.34  -2.78   -22.897911    2             
iter:  16  11:27:06  -5.30  -2.86   -22.897820    3             
iter:  17  11:27:06  -6.11  -3.16   -22.897814    3             
iter:  18  11:27:06  -6.37  -3.22   -22.897815    3             
iter:  19  11:27:06  -6.61  -3.29   -22.897806    3             
iter:  20  11:27:07  -6.69  -3.35   -22.897798    2             
iter:  21  11:27:07  -6.92  -3.48   -22.897797    2             
iter:  22  11:27:07  -7.01  -3.55   -22.897799    2             
iter:  23  11:27:08  -6.80  -3.63   -22.897797    2             
iter:  24  11:27:08  -6.96  -3.87   -22.897796    2             
iter:  25  11:27:08  -8.01  -4.05   -22.897796    2             

Converged after 25 iterations.

Dipole moment: (-0.044939, -0.025946, -0.229062) |e|*Ang

Energy contributions relative to reference atoms: (reference = -22878.750211)

Kinetic:        +11.559285
Potential:       -9.780312
External:        +0.000000
XC:             -24.683739
Entropy (-ST):   -0.075979
Local:           +0.044960
--------------------------
Free energy:    -22.935786
Extrapolated:   -22.897796

Fermi level: -1.41100

Showing only first 2 kpts
 Kpt  Band  Eigenvalues  Occupancy
  0     7     -3.10806    0.11111
  0     8     -2.00520    0.11082
  0     9      1.05685    0.00000
  0    10      1.81997    0.00000

  1     7     -3.00451    0.11111
  1     8     -2.25274    0.11109
  1     9      1.40065    0.00000
  1    10      1.79807    0.00000


No gap
Timing:                              incl.     excl.
-----------------------------------------------------------
Hamiltonian:                         0.127     0.003   0.0% |
 Atomic:                             0.000     0.000   0.0% |
  XC Correction:                     0.000     0.000   0.0% |
 Calculate atomic Hamiltonians:      0.007     0.007   0.1% |
 Communicate:                        0.065     0.065   0.8% |
 Initialize Hamiltonian:             0.000     0.000   0.0% |
 Poisson:                            0.000     0.000   0.0% |
 XC 3D grid:                         0.051     0.051   0.6% |
LCAO initialization:                 0.519     0.137   1.6% ||
 LCAO eigensolver:                   0.094     0.000   0.0% |
  Calculate projections:             0.000     0.000   0.0% |
  DenseAtomicCorrection:             0.000     0.000   0.0% |
  Distribute overlap matrix:         0.093     0.093   1.1% |
  Orbital Layouts:                   0.001     0.001   0.0% |
  Potential matrix:                  0.000     0.000   0.0% |
  Sum over cells:                    0.000     0.000   0.0% |
 LCAO to grid:                       0.181     0.181   2.1% ||
 Set positions (LCAO WFS):           0.108     0.066   0.8% |
  Basic WFS set positions:           0.001     0.001   0.0% |
  Basis functions set positions:     0.000     0.000   0.0% |
  P tci:                             0.000     0.000   0.0% |
  ST tci:                            0.012     0.012   0.1% |
  mktci:                             0.028     0.028   0.3% |
PWDescriptor:                        0.007     0.007   0.1% |
SCF-cycle:                           6.871     0.075   0.9% |
 Davidson:                           2.444     0.430   5.1% |-|
  Apply H:                           0.419     0.409   4.8% |-|
   HMM T:                            0.011     0.011   0.1% |
  Subspace diag:                     0.496     0.006   0.1% |
   calc_h_matrix:                    0.443     0.021   0.3% |
    Apply H:                         0.421     0.409   4.8% |-|
     HMM T:                          0.012     0.012   0.1% |
   diagonalize:                      0.026     0.026   0.3% |
   rotate_psi:                       0.021     0.021   0.2% |
  calc. matrices:                    1.003     0.172   2.0% ||
   Apply H:                          0.830     0.806   9.5% |---|
    HMM T:                           0.024     0.024   0.3% |
  diagonalize:                       0.062     0.062   0.7% |
  rotate_psi:                        0.035     0.035   0.4% |
 Density:                            1.243     0.000   0.0% |
  Atomic density matrices:           0.025     0.025   0.3% |
  Mix:                               0.634     0.634   7.5% |--|
  Multipole moments:                 0.003     0.003   0.0% |
  Pseudo density:                    0.580     0.276   3.3% ||
   Symmetrize density:               0.304     0.304   3.6% ||
 Hamiltonian:                        3.104     0.082   1.0% |
  Atomic:                            0.006     0.006   0.1% |
   XC Correction:                    0.000     0.000   0.0% |
  Calculate atomic Hamiltonians:     0.211     0.211   2.5% ||
  Communicate:                       1.544     1.544  18.2% |------|
  Poisson:                           0.006     0.006   0.1% |
  XC 3D grid:                        1.255     1.255  14.8% |-----|
 Orthonormalize:                     0.005     0.000   0.0% |
  calc_s_matrix:                     0.001     0.001   0.0% |
  inverse-cholesky:                  0.001     0.001   0.0% |
  projections:                       0.003     0.003   0.0% |
  rotate_psi_s:                      0.000     0.000   0.0% |
Set symmetry:                        0.005     0.005   0.1% |
Other:                               0.962     0.962  11.3% |----|
-----------------------------------------------------------
Total:                                         8.491 100.0%

Memory usage: 115.60 MiB
Date: Mon Dec  9 11:27:08 2019
