
  ___ ___ ___ _ _ _  
 |   |   |_  | | | | 
 | | | | | . | | | | 
 |__ |  _|___|_____|  19.8.1
 |___|_|             

User:   fadjar@cn0015
Date:   Mon Dec  9 11:54:13 2019
Arch:   x86_64
Pid:    18015
Python: 3.7.3
gpaw:   /app/anaconda3/lib/python3.7/site-packages/gpaw
_gpaw:  /app/anaconda3/bin/gpaw-python
ase:    /app/anaconda3/lib/python3.7/site-packages/ase-3.18.0-py3.7.egg/ase (version 3.18.0)
numpy:  /app/anaconda3/lib/python3.7/site-packages/numpy (version 1.16.4)
scipy:  /app/anaconda3/lib/python3.7/site-packages/scipy (version 1.3.0)
libxc:  4.3.4
units:  Angstrom and eV
cores:  20

Input parameters:
  kpts: [6 6 1]
  mode: {ecut: 750.0,
         gammacentered: False,
         name: pw}
  xc: PBE

System changes: positions, numbers, cell, pbc, initial_charges, initial_magmoms 

Initialize ...

Al-setup:
  name: Aluminium
  id: 0292cae29f5d6237e50f6abdd43a7bdd
  Z: 13
  valence: 3
  core: 10
  charge: 0.0
  file: /app/gpaw-setups-0.9.20000/Al.PBE.gz
  compensation charges: gauss, rc=0.34, lmax=2
  cutoffs: 1.91(filt), 2.36(core),
  valence states:
                energy  radius
    3s(2.00)    -7.753   1.085
    3p(1.00)    -2.712   1.085
    *s          19.459   1.085
    *p          24.499   1.085
    *d           0.000   1.085

  Using partial waves for Al as LCAO basis

C-setup:
  name: Carbon
  id: 4aa54d4b901d75f77cc0ea3eec22967b
  Z: 6
  valence: 4
  core: 2
  charge: 0.0
  file: /app/gpaw-setups-0.9.20000/C.PBE.gz
  compensation charges: gauss, rc=0.20, lmax=2
  cutoffs: 1.14(filt), 1.14(core),
  valence states:
                energy  radius
    2s(2.00)   -13.751   0.635
    2p(2.00)    -5.284   0.635
    *s          13.461   0.635
    *p          21.927   0.635
    *d           0.000   0.635

  Using partial waves for C as LCAO basis

O-setup:
  name: Oxygen
  id: 32ecd46bf208036f09c70b0ec9a88b78
  Z: 8
  valence: 6
  core: 2
  charge: 0.0
  file: /app/gpaw-setups-0.9.20000/O.PBE.gz
  compensation charges: gauss, rc=0.21, lmax=2
  cutoffs: 1.17(filt), 0.83(core),
  valence states:
                energy  radius
    2s(2.00)   -23.961   0.688
    2p(4.00)    -9.029   0.598
    *s           3.251   0.688
    *p          18.182   0.598
    *d           0.000   0.619

  Using partial waves for O as LCAO basis

Reference energy: -22878.750211

Spin-paired calculation

Occupation numbers:
  Fermi-Dirac: width=0.1000 eV

Convergence criteria:
  Maximum total energy change: 0.0005 eV / electron
  Maximum integral of absolute density change: 0.0001 electrons
  Maximum integral of absolute eigenstate change: 4e-08 eV^2
  Maximum number of iterations: 333

Symmetries present (total): 6

  ( 1  0  0)  ( 1 -1  0)  ( 0  1  0)  ( 0 -1  0)  (-1  1  0)  (-1  0  0)
  ( 0  1  0)  ( 0 -1  0)  ( 1  0  0)  ( 1 -1  0)  (-1  0  0)  (-1  1  0)
  ( 0  0  1)  ( 0  0  1)  ( 0  0  1)  ( 0  0  1)  ( 0  0  1)  ( 0  0  1)
Note: your k-points are not as symmetric as your crystal!

36 k-points: 6 x 6 x 1 Monkhorst-Pack grid
12 k-points in the irreducible part of the Brillouin zone
       k-points in crystal coordinates                weights
   0:     0.08333333   -0.08333333    0.00000000          2/36
   1:     0.08333333    0.08333333    0.00000000          2/36
   2:     0.25000000   -0.25000000    0.00000000          2/36
   3:     0.25000000   -0.08333333    0.00000000          4/36
   4:     0.25000000    0.08333333    0.00000000          4/36
   5:     0.25000000    0.25000000    0.00000000          2/36
   6:     0.41666667   -0.41666667    0.00000000          2/36
   7:     0.41666667   -0.25000000    0.00000000          4/36
   8:     0.41666667   -0.08333333    0.00000000          4/36
   9:     0.41666667    0.08333333    0.00000000          4/36
          ...
  11:     0.41666667    0.41666667    0.00000000          2/36

Wave functions: Plane wave expansion
  Cutoff energy: 750.000 eV
  Number of coefficients (min, max): 8767, 8875
  Pulay-stress correction: 0.000000 eV/Ang^3 (de/decut=0.000000)
  Using Numpy's FFT
  ScaLapack parameters: grid=1x1, blocksize=None
  Wavefunction extrapolation:
    Improved wavefunction reuse through dual PAW basis 

Eigensolver
   Davidson(niter=2, smin=None, normalize=True) 

Densities:
  Coarse grid: 20*20*175 grid
  Fine grid: 40*40*350 grid
  Total Charge: 0.000000 

Density mixing:
  Method: separate
  Backend: pulay
  Linear mixing parameter: 0.05
  Mixing with 5 old densities
  Damping of long wave oscillations: 50 

Hamiltonian:
  XC and Coulomb potentials evaluated on a 40*40*350 grid
  Using the PBE Exchange-Correlation functional
 

XC parameters: PBE with 2 nearest neighbor stencil

Memory estimate:
  Process memory now: 155.83 MiB
  Calculator: 21.75 MiB
    Density: 6.66 MiB
      Arrays: 2.78 MiB
      Localized functions: 2.81 MiB
      Mixer: 1.07 MiB
    Hamiltonian: 1.89 MiB
      Arrays: 1.82 MiB
      XC: 0.00 MiB
      Poisson: 0.00 MiB
      vbar: 0.08 MiB
    Wavefunctions: 13.20 MiB
      Arrays psit_nG: 6.50 MiB
      Eigensolver: 2.88 MiB
      Projections: 0.01 MiB
      Projectors: 0.98 MiB
      PW-descriptor: 2.83 MiB

Total number of cores used: 20
Parallelization over k-points: 4
Domain decomposition: 1 x 1 x 5

Number of atoms: 5
Number of atomic orbitals: 20
Number of bands in calculation: 16
Bands to converge: occupied states only
Number of valence electrons: 19

... initialized

Initializing position-dependent things.

Density initialized from atomic densities
Creating initial wave functions:
  16 bands from LCAO basis set

                    
                    
                    
                    
       O            
                    
       C            
                    
                    
       Al           
                    
        Al          
                    
                    
           Al       
                    
                    
                    
                    

Positions:
   0 Al     1.430477    0.825886   11.000000    ( 0.0000,  0.0000,  0.0000)
   1 Al     0.000000    1.651773   13.335959    ( 0.0000,  0.0000,  0.0000)
   2 Al     0.000000    0.000000   15.671918    ( 0.0000,  0.0000,  0.0000)
   3 C      0.000000    0.000000   17.471918    ( 0.0000,  0.0000,  0.0000)
   4 O      0.000000    0.000000   18.901918    ( 0.0000,  0.0000,  0.0000)

Unit cell:
           periodic     x           y           z      points  spacing
  1. axis:    yes    2.860954    0.000000    0.000000    20     0.1239
  2. axis:    yes    1.430477    2.477659    0.000000    20     0.1239
  3. axis:    no     0.000000    0.000000   26.671918   175     0.1524

  Lengths:   2.860954   2.860954  26.671918
  Angles:   90.000000  90.000000  60.000000

Effective grid spacing dv^(1/3) = 0.1393

                     log10-error:    total        iterations:
           time      wfs    density  energy       fermi  poisson
iter:   1  11:54:16  +0.86   +inf   -26.417795    3             
iter:   2  11:54:16  -0.79  -0.67   -26.605224    3             
iter:   3  11:54:17  -2.33  -0.76   -23.666576    3             
iter:   4  11:54:17  -3.07  -0.96   -23.617760    3             
iter:   5  11:54:18  -1.20  -0.98   -23.968865    4             
iter:   6  11:54:19  -1.50  -1.03   -23.431607    32            
iter:   7  11:54:19  -2.25  -1.36   -23.394869    3             
iter:   8  11:54:20  -3.11  -1.49   -23.340096    5             
iter:   9  11:54:20  -3.24  -1.72   -23.338117    4             
iter:  10  11:54:21  -3.36  -1.79   -23.330997    4             
iter:  11  11:54:22  -3.39  -1.96   -23.324155    4             
iter:  12  11:54:22  -4.10  -2.17   -23.323149    3             
iter:  13  11:54:23  -4.24  -2.26   -23.322585    3             
iter:  14  11:54:24  -4.18  -2.36   -23.321432    3             
iter:  15  11:54:24  -5.08  -2.76   -23.321406    3             
iter:  16  11:54:25  -5.42  -2.86   -23.321307    3             
iter:  17  11:54:25  -5.87  -3.01   -23.321260    3             
iter:  18  11:54:26  -6.03  -3.14   -23.321248    3             
iter:  19  11:54:27  -6.31  -3.30   -23.321230    3             
iter:  20  11:54:27  -6.11  -3.43   -23.321230    3             
iter:  21  11:54:28  -6.97  -3.54   -23.321229    2             
iter:  22  11:54:28  -6.77  -3.57   -23.321234    2             
iter:  23  11:54:29  -7.58  -3.77   -23.321234    2             
iter:  24  11:54:30  -7.31  -3.82   -23.321234    2             
iter:  25  11:54:30  -7.90  -4.18   -23.321236    2             

Converged after 25 iterations.

Dipole moment: (-0.044790, -0.025860, -0.219473) |e|*Ang

Energy contributions relative to reference atoms: (reference = -22878.750211)

Kinetic:        +14.347758
Potential:      -13.036709
External:        +0.000000
XC:             -24.825591
Entropy (-ST):   -0.075954
Local:           +0.231283
--------------------------
Free energy:    -23.359213
Extrapolated:   -23.321236

Fermi level: -1.77844

Showing only first 2 kpts
 Kpt  Band  Eigenvalues  Occupancy
  0     7     -3.48130    0.11111
  0     8     -2.37499    0.11083
  0     9      0.68514    0.00000
  0    10      1.44396    0.00000

  1     7     -3.38177    0.11111
  1     8     -2.62265    0.11109
  1     9      1.02429    0.00000
  1    10      1.42404    0.00000


No gap
Timing:                              incl.     excl.
-----------------------------------------------------------
Hamiltonian:                         0.203     0.006   0.0% |
 Atomic:                             0.000     0.000   0.0% |
  XC Correction:                     0.000     0.000   0.0% |
 Calculate atomic Hamiltonians:      0.007     0.007   0.0% |
 Communicate:                        0.066     0.066   0.4% |
 Initialize Hamiltonian:             0.000     0.000   0.0% |
 Poisson:                            0.000     0.000   0.0% |
 XC 3D grid:                         0.124     0.124   0.7% |
LCAO initialization:                 0.868     0.138   0.8% |
 LCAO eigensolver:                   0.204     0.000   0.0% |
  Calculate projections:             0.000     0.000   0.0% |
  DenseAtomicCorrection:             0.000     0.000   0.0% |
  Distribute overlap matrix:         0.203     0.203   1.2% |
  Orbital Layouts:                   0.001     0.001   0.0% |
  Potential matrix:                  0.000     0.000   0.0% |
  Sum over cells:                    0.000     0.000   0.0% |
 LCAO to grid:                       0.432     0.432   2.5% ||
 Set positions (LCAO WFS):           0.094     0.053   0.3% |
  Basic WFS set positions:           0.001     0.001   0.0% |
  Basis functions set positions:     0.000     0.000   0.0% |
  P tci:                             0.000     0.000   0.0% |
  ST tci:                            0.012     0.012   0.1% |
  mktci:                             0.028     0.028   0.2% |
PWDescriptor:                        0.020     0.020   0.1% |
SCF-cycle:                          14.866     0.115   0.7% |
 Davidson:                           6.517     0.826   4.8% |-|
  Apply H:                           1.272     1.242   7.3% |--|
   HMM T:                            0.030     0.030   0.2% |
  Subspace diag:                     1.478     0.007   0.0% |
   calc_h_matrix:                    1.393     0.050   0.3% |
    Apply H:                         1.343     1.309   7.7% |--|
     HMM T:                          0.034     0.034   0.2% |
   diagonalize:                      0.029     0.029   0.2% |
   rotate_psi:                       0.049     0.049   0.3% |
  calc. matrices:                    2.787     0.245   1.4% ||
   Apply H:                          2.542     2.478  14.5% |-----|
    HMM T:                           0.064     0.064   0.4% |
  diagonalize:                       0.078     0.078   0.5% |
  rotate_psi:                        0.075     0.075   0.4% |
 Density:                            3.074     0.000   0.0% |
  Atomic density matrices:           0.028     0.028   0.2% |
  Mix:                               1.347     1.347   7.9% |--|
  Multipole moments:                 0.004     0.004   0.0% |
  Pseudo density:                    1.695     0.903   5.3% |-|
   Symmetrize density:               0.791     0.791   4.6% |-|
 Hamiltonian:                        5.151     0.162   0.9% |
  Atomic:                            0.007     0.007   0.0% |
   XC Correction:                    0.000     0.000   0.0% |
  Calculate atomic Hamiltonians:     0.333     0.333   1.9% ||
  Communicate:                       1.559     1.559   9.1% |---|
  Poisson:                           0.012     0.012   0.1% |
  XC 3D grid:                        3.079     3.079  18.0% |------|
 Orthonormalize:                     0.009     0.000   0.0% |
  calc_s_matrix:                     0.001     0.001   0.0% |
  inverse-cholesky:                  0.001     0.001   0.0% |
  projections:                       0.006     0.006   0.0% |
  rotate_psi_s:                      0.001     0.001   0.0% |
Set symmetry:                        0.005     0.005   0.0% |
Other:                               1.130     1.130   6.6% |--|
-----------------------------------------------------------
Total:                                        17.092 100.0%

Memory usage: 159.84 MiB
Date: Mon Dec  9 11:54:30 2019
