
  ___ ___ ___ _ _ _  
 |   |   |_  | | | | 
 | | | | | . | | | | 
 |__ |  _|___|_____|  19.8.1
 |___|_|             

User:   fadjar@cn0015
Date:   Mon Dec  9 11:53:32 2019
Arch:   x86_64
Pid:    18015
Python: 3.7.3
gpaw:   /app/anaconda3/lib/python3.7/site-packages/gpaw
_gpaw:  /app/anaconda3/bin/gpaw-python
ase:    /app/anaconda3/lib/python3.7/site-packages/ase-3.18.0-py3.7.egg/ase (version 3.18.0)
numpy:  /app/anaconda3/lib/python3.7/site-packages/numpy (version 1.16.4)
scipy:  /app/anaconda3/lib/python3.7/site-packages/scipy (version 1.3.0)
libxc:  4.3.4
units:  Angstrom and eV
cores:  20

Input parameters:
  kpts: [6 6 1]
  mode: {ecut: 750.0,
         gammacentered: False,
         name: pw}
  xc: PBE

System changes: positions, numbers, cell, pbc, initial_charges, initial_magmoms 

Initialize ...

Al-setup:
  name: Aluminium
  id: 0292cae29f5d6237e50f6abdd43a7bdd
  Z: 13
  valence: 3
  core: 10
  charge: 0.0
  file: /app/gpaw-setups-0.9.20000/Al.PBE.gz
  compensation charges: gauss, rc=0.34, lmax=2
  cutoffs: 1.91(filt), 2.36(core),
  valence states:
                energy  radius
    3s(2.00)    -7.753   1.085
    3p(1.00)    -2.712   1.085
    *s          19.459   1.085
    *p          24.499   1.085
    *d           0.000   1.085

  Using partial waves for Al as LCAO basis

C-setup:
  name: Carbon
  id: 4aa54d4b901d75f77cc0ea3eec22967b
  Z: 6
  valence: 4
  core: 2
  charge: 0.0
  file: /app/gpaw-setups-0.9.20000/C.PBE.gz
  compensation charges: gauss, rc=0.20, lmax=2
  cutoffs: 1.14(filt), 1.14(core),
  valence states:
                energy  radius
    2s(2.00)   -13.751   0.635
    2p(2.00)    -5.284   0.635
    *s          13.461   0.635
    *p          21.927   0.635
    *d           0.000   0.635

  Using partial waves for C as LCAO basis

O-setup:
  name: Oxygen
  id: 32ecd46bf208036f09c70b0ec9a88b78
  Z: 8
  valence: 6
  core: 2
  charge: 0.0
  file: /app/gpaw-setups-0.9.20000/O.PBE.gz
  compensation charges: gauss, rc=0.21, lmax=2
  cutoffs: 1.17(filt), 0.83(core),
  valence states:
                energy  radius
    2s(2.00)   -23.961   0.688
    2p(4.00)    -9.029   0.598
    *s           3.251   0.688
    *p          18.182   0.598
    *d           0.000   0.619

  Using partial waves for O as LCAO basis

Reference energy: -22878.750211

Spin-paired calculation

Occupation numbers:
  Fermi-Dirac: width=0.1000 eV

Convergence criteria:
  Maximum total energy change: 0.0005 eV / electron
  Maximum integral of absolute density change: 0.0001 electrons
  Maximum integral of absolute eigenstate change: 4e-08 eV^2
  Maximum number of iterations: 333

Symmetries present (total): 6

  ( 1  0  0)  ( 1 -1  0)  ( 0  1  0)  ( 0 -1  0)  (-1  1  0)  (-1  0  0)
  ( 0  1  0)  ( 0 -1  0)  ( 1  0  0)  ( 1 -1  0)  (-1  0  0)  (-1  1  0)
  ( 0  0  1)  ( 0  0  1)  ( 0  0  1)  ( 0  0  1)  ( 0  0  1)  ( 0  0  1)
Note: your k-points are not as symmetric as your crystal!

36 k-points: 6 x 6 x 1 Monkhorst-Pack grid
12 k-points in the irreducible part of the Brillouin zone
       k-points in crystal coordinates                weights
   0:     0.08333333   -0.08333333    0.00000000          2/36
   1:     0.08333333    0.08333333    0.00000000          2/36
   2:     0.25000000   -0.25000000    0.00000000          2/36
   3:     0.25000000   -0.08333333    0.00000000          4/36
   4:     0.25000000    0.08333333    0.00000000          4/36
   5:     0.25000000    0.25000000    0.00000000          2/36
   6:     0.41666667   -0.41666667    0.00000000          2/36
   7:     0.41666667   -0.25000000    0.00000000          4/36
   8:     0.41666667   -0.08333333    0.00000000          4/36
   9:     0.41666667    0.08333333    0.00000000          4/36
          ...
  11:     0.41666667    0.41666667    0.00000000          2/36

Wave functions: Plane wave expansion
  Cutoff energy: 750.000 eV
  Number of coefficients (min, max): 6796, 6873
  Pulay-stress correction: 0.000000 eV/Ang^3 (de/decut=0.000000)
  Using Numpy's FFT
  ScaLapack parameters: grid=1x1, blocksize=None
  Wavefunction extrapolation:
    Improved wavefunction reuse through dual PAW basis 

Eigensolver
   Davidson(niter=2, smin=None, normalize=True) 

Densities:
  Coarse grid: 20*20*135 grid
  Fine grid: 40*40*270 grid
  Total Charge: 0.000000 

Density mixing:
  Method: separate
  Backend: pulay
  Linear mixing parameter: 0.05
  Mixing with 5 old densities
  Damping of long wave oscillations: 50 

Hamiltonian:
  XC and Coulomb potentials evaluated on a 40*40*270 grid
  Using the PBE Exchange-Correlation functional
 

XC parameters: PBE with 2 nearest neighbor stencil

Memory estimate:
  Process memory now: 136.34 MiB
  Calculator: 16.83 MiB
    Density: 5.15 MiB
      Arrays: 2.14 MiB
      Localized functions: 2.18 MiB
      Mixer: 0.82 MiB
    Hamiltonian: 1.46 MiB
      Arrays: 1.40 MiB
      XC: 0.00 MiB
      Poisson: 0.00 MiB
      vbar: 0.06 MiB
    Wavefunctions: 10.23 MiB
      Arrays psit_nG: 5.03 MiB
      Eigensolver: 2.24 MiB
      Projections: 0.01 MiB
      Projectors: 0.76 MiB
      PW-descriptor: 2.19 MiB

Total number of cores used: 20
Parallelization over k-points: 4
Domain decomposition: 1 x 1 x 5

Number of atoms: 5
Number of atomic orbitals: 20
Number of bands in calculation: 16
Bands to converge: occupied states only
Number of valence electrons: 19

... initialized

Initializing position-dependent things.

Density initialized from atomic densities
Creating initial wave functions:
  16 bands from LCAO basis set

                    
                    
                    
                    
       O            
                    
       C            
                    
                    
       Al           
                    
        Al          
                    
                    
           Al       
                    
                    
                    
                    

Positions:
   0 Al     1.430477    0.825886    8.000000    ( 0.0000,  0.0000,  0.0000)
   1 Al     0.000000    1.651773   10.335959    ( 0.0000,  0.0000,  0.0000)
   2 Al     0.000000    0.000000   12.671918    ( 0.0000,  0.0000,  0.0000)
   3 C      0.000000    0.000000   14.471918    ( 0.0000,  0.0000,  0.0000)
   4 O      0.000000    0.000000   15.901918    ( 0.0000,  0.0000,  0.0000)

Unit cell:
           periodic     x           y           z      points  spacing
  1. axis:    yes    2.860954    0.000000    0.000000    20     0.1239
  2. axis:    yes    1.430477    2.477659    0.000000    20     0.1239
  3. axis:    no     0.000000    0.000000   20.671918   135     0.1531

  Lengths:   2.860954   2.860954  20.671918
  Angles:   90.000000  90.000000  60.000000

Effective grid spacing dv^(1/3) = 0.1395

                     log10-error:    total        iterations:
           time      wfs    density  energy       fermi  poisson
iter:   1  11:53:34  +0.85   +inf   -25.399642    2             
iter:   2  11:53:34  -1.33  -0.78   -24.083029    3             
iter:   3  11:53:35  -2.41  -0.94   -23.594867    3             
iter:   4  11:53:35  -2.35  -0.98   -23.480580    4             
iter:   5  11:53:36  -1.59  -1.08   -23.574847    32            
iter:   6  11:53:36  -1.57  -1.20   -23.419609    4             
iter:   7  11:53:37  -3.11  -1.51   -23.358018    4             
iter:   8  11:53:37  -2.87  -1.66   -23.346258    4             
iter:   9  11:53:38  -3.33  -1.77   -23.337436    4             
iter:  10  11:53:38  -3.45  -1.90   -23.333664    4             
iter:  11  11:53:38  -3.54  -2.02   -23.331443    3             
iter:  12  11:53:39  -3.78  -2.12   -23.329716    3             
iter:  13  11:53:39  -5.07  -2.66   -23.329457    2             
iter:  14  11:53:40  -5.44  -2.73   -23.329471    3             
iter:  15  11:53:40  -5.51  -2.81   -23.329364    2             
iter:  16  11:53:41  -5.72  -2.99   -23.329315    3             
iter:  17  11:53:41  -5.70  -3.17   -23.329282    3             
iter:  18  11:53:42  -6.73  -3.34   -23.329285    2             
iter:  19  11:53:42  -6.91  -3.39   -23.329288    2             
iter:  20  11:53:43  -6.88  -3.44   -23.329287    2             
iter:  21  11:53:43  -7.15  -3.54   -23.329283    2             
iter:  22  11:53:43  -7.52  -3.57   -23.329284    2             
iter:  23  11:53:44  -7.06  -3.60   -23.329285    2             
iter:  24  11:53:44  -6.74  -3.70   -23.329289    2             
iter:  25  11:53:45  -7.91  -4.02   -23.329289    2             

Converged after 25 iterations.

Dipole moment: (-0.045308, -0.026159, -0.266297) |e|*Ang

Energy contributions relative to reference atoms: (reference = -22878.750211)

Kinetic:        +14.351459
Potential:      -13.019765
External:        +0.000000
XC:             -24.849396
Entropy (-ST):   -0.076147
Local:           +0.226486
--------------------------
Free energy:    -23.367363
Extrapolated:   -23.329289

Fermi level: -0.48236

Showing only first 2 kpts
 Kpt  Band  Eigenvalues  Occupancy
  0     7     -2.19346    0.11111
  0     8     -1.07141    0.11080
  0     9      1.98081    0.00000
  0    10      2.75413    0.00000

  1     7     -2.09392    0.11111
  1     8     -1.31887    0.11109
  1     9      2.35380    0.00000
  1    10      2.72306    0.00000


No gap
Timing:                              incl.     excl.
-----------------------------------------------------------
Hamiltonian:                         0.171     0.005   0.0% |
 Atomic:                             0.000     0.000   0.0% |
  XC Correction:                     0.000     0.000   0.0% |
 Calculate atomic Hamiltonians:      0.005     0.005   0.0% |
 Communicate:                        0.065     0.065   0.5% |
 Initialize Hamiltonian:             0.000     0.000   0.0% |
 Poisson:                            0.000     0.000   0.0% |
 XC 3D grid:                         0.095     0.095   0.7% |
LCAO initialization:                 0.767     0.137   1.0% |
 LCAO eigensolver:                   0.194     0.000   0.0% |
  Calculate projections:             0.000     0.000   0.0% |
  DenseAtomicCorrection:             0.000     0.000   0.0% |
  Distribute overlap matrix:         0.193     0.193   1.5% ||
  Orbital Layouts:                   0.001     0.001   0.0% |
  Potential matrix:                  0.000     0.000   0.0% |
  Sum over cells:                    0.000     0.000   0.0% |
 LCAO to grid:                       0.359     0.359   2.7% ||
 Set positions (LCAO WFS):           0.077     0.035   0.3% |
  Basic WFS set positions:           0.001     0.001   0.0% |
  Basis functions set positions:     0.000     0.000   0.0% |
  P tci:                             0.000     0.000   0.0% |
  ST tci:                            0.012     0.012   0.1% |
  mktci:                             0.028     0.028   0.2% |
PWDescriptor:                        0.014     0.014   0.1% |
SCF-cycle:                          11.149     0.131   1.0% |
 Davidson:                           4.619     0.615   4.7% |-|
  Apply H:                           0.893     0.872   6.6% |--|
   HMM T:                            0.021     0.021   0.2% |
  Subspace diag:                     1.009     0.007   0.1% |
   calc_h_matrix:                    0.941     0.032   0.2% |
    Apply H:                         0.909     0.887   6.7% |--|
     HMM T:                          0.023     0.023   0.2% |
   diagonalize:                      0.026     0.026   0.2% |
   rotate_psi:                       0.034     0.034   0.3% |
  calc. matrices:                    1.984     0.204   1.6% ||
   Apply H:                          1.780     1.736  13.2% |----|
    HMM T:                           0.044     0.044   0.3% |
  diagonalize:                       0.066     0.066   0.5% |
  rotate_psi:                        0.053     0.053   0.4% |
 Density:                            2.280     0.000   0.0% |
  Atomic density matrices:           0.027     0.027   0.2% |
  Mix:                               1.066     1.066   8.1% |--|
  Multipole moments:                 0.003     0.003   0.0% |
  Pseudo density:                    1.183     0.620   4.7% |-|
   Symmetrize density:               0.563     0.563   4.3% |-|
 Hamiltonian:                        4.112     0.129   1.0% |
  Atomic:                            0.006     0.006   0.0% |
   XC Correction:                    0.000     0.000   0.0% |
  Calculate atomic Hamiltonians:     0.132     0.132   1.0% |
  Communicate:                       1.563     1.563  11.9% |----|
  Poisson:                           0.010     0.010   0.1% |
  XC 3D grid:                        2.271     2.271  17.3% |------|
 Orthonormalize:                     0.007     0.000   0.0% |
  calc_s_matrix:                     0.001     0.001   0.0% |
  inverse-cholesky:                  0.001     0.001   0.0% |
  projections:                       0.004     0.004   0.0% |
  rotate_psi_s:                      0.001     0.001   0.0% |
Set symmetry:                        0.005     0.005   0.0% |
Other:                               1.037     1.037   7.9% |--|
-----------------------------------------------------------
Total:                                        13.143 100.0%

Memory usage: 142.53 MiB
Date: Mon Dec  9 11:53:45 2019
