
  ___ ___ ___ _ _ _  
 |   |   |_  | | | | 
 | | | | | . | | | | 
 |__ |  _|___|_____|  19.8.1
 |___|_|             

User:   fadjar@cn0015
Date:   Mon Dec  9 12:00:27 2019
Arch:   x86_64
Pid:    18739
Python: 3.7.3
gpaw:   /app/anaconda3/lib/python3.7/site-packages/gpaw
_gpaw:  /app/anaconda3/bin/gpaw-python
ase:    /app/anaconda3/lib/python3.7/site-packages/ase-3.18.0-py3.7.egg/ase (version 3.18.0)
numpy:  /app/anaconda3/lib/python3.7/site-packages/numpy (version 1.16.4)
scipy:  /app/anaconda3/lib/python3.7/site-packages/scipy (version 1.3.0)
libxc:  4.3.4
units:  Angstrom and eV
cores:  20

Input parameters:
  kpts: [6 6 1]
  mode: {ecut: 750.0,
         gammacentered: False,
         name: pw}
  xc: PBE

System changes: positions, numbers, cell, pbc, initial_charges, initial_magmoms 

Initialize ...

Al-setup:
  name: Aluminium
  id: 0292cae29f5d6237e50f6abdd43a7bdd
  Z: 13
  valence: 3
  core: 10
  charge: 0.0
  file: /app/gpaw-setups-0.9.20000/Al.PBE.gz
  compensation charges: gauss, rc=0.34, lmax=2
  cutoffs: 1.91(filt), 2.36(core),
  valence states:
                energy  radius
    3s(2.00)    -7.753   1.085
    3p(1.00)    -2.712   1.085
    *s          19.459   1.085
    *p          24.499   1.085
    *d           0.000   1.085

  Using partial waves for Al as LCAO basis

C-setup:
  name: Carbon
  id: 4aa54d4b901d75f77cc0ea3eec22967b
  Z: 6
  valence: 4
  core: 2
  charge: 0.0
  file: /app/gpaw-setups-0.9.20000/C.PBE.gz
  compensation charges: gauss, rc=0.20, lmax=2
  cutoffs: 1.14(filt), 1.14(core),
  valence states:
                energy  radius
    2s(2.00)   -13.751   0.635
    2p(2.00)    -5.284   0.635
    *s          13.461   0.635
    *p          21.927   0.635
    *d           0.000   0.635

  Using partial waves for C as LCAO basis

O-setup:
  name: Oxygen
  id: 32ecd46bf208036f09c70b0ec9a88b78
  Z: 8
  valence: 6
  core: 2
  charge: 0.0
  file: /app/gpaw-setups-0.9.20000/O.PBE.gz
  compensation charges: gauss, rc=0.21, lmax=2
  cutoffs: 1.17(filt), 0.83(core),
  valence states:
                energy  radius
    2s(2.00)   -23.961   0.688
    2p(4.00)    -9.029   0.598
    *s           3.251   0.688
    *p          18.182   0.598
    *d           0.000   0.619

  Using partial waves for O as LCAO basis

Reference energy: -22878.750211

Spin-paired calculation

Occupation numbers:
  Fermi-Dirac: width=0.1000 eV

Convergence criteria:
  Maximum total energy change: 0.0005 eV / electron
  Maximum integral of absolute density change: 0.0001 electrons
  Maximum integral of absolute eigenstate change: 4e-08 eV^2
  Maximum number of iterations: 333

Symmetries present (total): 6

  ( 1  0  0)  ( 1 -1  0)  ( 0  1  0)  ( 0 -1  0)  (-1  1  0)  (-1  0  0)
  ( 0  1  0)  ( 0 -1  0)  ( 1  0  0)  ( 1 -1  0)  (-1  0  0)  (-1  1  0)
  ( 0  0  1)  ( 0  0  1)  ( 0  0  1)  ( 0  0  1)  ( 0  0  1)  ( 0  0  1)
Note: your k-points are not as symmetric as your crystal!

36 k-points: 6 x 6 x 1 Monkhorst-Pack grid
12 k-points in the irreducible part of the Brillouin zone
       k-points in crystal coordinates                weights
   0:     0.08333333   -0.08333333    0.00000000          2/36
   1:     0.08333333    0.08333333    0.00000000          2/36
   2:     0.25000000   -0.25000000    0.00000000          2/36
   3:     0.25000000   -0.08333333    0.00000000          4/36
   4:     0.25000000    0.08333333    0.00000000          4/36
   5:     0.25000000    0.25000000    0.00000000          2/36
   6:     0.41666667   -0.41666667    0.00000000          2/36
   7:     0.41666667   -0.25000000    0.00000000          4/36
   8:     0.41666667   -0.08333333    0.00000000          4/36
   9:     0.41666667    0.08333333    0.00000000          4/36
          ...
  11:     0.41666667    0.41666667    0.00000000          2/36

Wave functions: Plane wave expansion
  Cutoff energy: 750.000 eV
  Number of coefficients (min, max): 14680, 14859
  Pulay-stress correction: 0.000000 eV/Ang^3 (de/decut=0.000000)
  Using Numpy's FFT
  ScaLapack parameters: grid=1x1, blocksize=None
  Wavefunction extrapolation:
    Improved wavefunction reuse through dual PAW basis 

Eigensolver
   Davidson(niter=2, smin=None, normalize=True) 

Densities:
  Coarse grid: 20*20*288 grid
  Fine grid: 40*40*576 grid
  Total Charge: 0.000000 

Density mixing:
  Method: separate
  Backend: pulay
  Linear mixing parameter: 0.05
  Mixing with 5 old densities
  Damping of long wave oscillations: 50 

Hamiltonian:
  XC and Coulomb potentials evaluated on a 40*40*576 grid
  Using the PBE Exchange-Correlation functional
 

XC parameters: PBE with 2 nearest neighbor stencil

Memory estimate:
  Process memory now: 191.39 MiB
  Calculator: 36.21 MiB
    Density: 11.08 MiB
      Arrays: 4.60 MiB
      Localized functions: 4.71 MiB
      Mixer: 1.77 MiB
    Hamiltonian: 3.14 MiB
      Arrays: 3.01 MiB
      XC: 0.00 MiB
      Poisson: 0.00 MiB
      vbar: 0.13 MiB
    Wavefunctions: 21.99 MiB
      Arrays psit_nG: 10.88 MiB
      Eigensolver: 4.80 MiB
      Projections: 0.01 MiB
      Projectors: 1.63 MiB
      PW-descriptor: 4.67 MiB

Total number of cores used: 20
Parallelization over k-points: 4
Domain decomposition: 1 x 1 x 5

Number of atoms: 5
Number of atomic orbitals: 20
Number of bands in calculation: 16
Bands to converge: occupied states only
Number of valence electrons: 19

... initialized

Initializing position-dependent things.

Density initialized from atomic densities
Creating initial wave functions:
  16 bands from LCAO basis set

                    
                    
                    
                    
       O            
                    
       C            
                    
                    
       Al           
                    
        Al          
                    
                    
           Al       
                    
                    
                    
                    

Positions:
   0 Al     1.430477    0.825886   20.000000    ( 0.0000,  0.0000,  0.0000)
   1 Al     0.000000    1.651773   22.335959    ( 0.0000,  0.0000,  0.0000)
   2 Al     0.000000    0.000000   24.671918    ( 0.0000,  0.0000,  0.0000)
   3 C      0.000000    0.000000   26.471918    ( 0.0000,  0.0000,  0.0000)
   4 O      0.000000    0.000000   27.901918    ( 0.0000,  0.0000,  0.0000)

Unit cell:
           periodic     x           y           z      points  spacing
  1. axis:    yes    2.860954    0.000000    0.000000    20     0.1239
  2. axis:    yes    1.430477    2.477659    0.000000    20     0.1239
  3. axis:    no     0.000000    0.000000   44.671918   288     0.1551

  Lengths:   2.860954   2.860954  44.671918
  Angles:   90.000000  90.000000  60.000000

Effective grid spacing dv^(1/3) = 0.1401

                     log10-error:    total        iterations:
           time      wfs    density  energy       fermi  poisson
iter:   1  12:00:30  +0.89   +inf   -28.790379    2             
iter:   2  12:00:31  +0.00  -0.53   -39.086622    31            
iter:   3  12:00:32  -1.70  -0.46   -24.125357    32            
iter:   4  12:00:33  -2.58  -0.91   -23.849289    4             
iter:   5  12:00:35  -1.25  -0.94   -24.044011    5             
iter:   6  12:00:36  -1.00  -0.98   -23.998160    32            
iter:   7  12:00:37  -2.47  -1.04   -23.820117    4             
iter:   8  12:00:38  -2.28  -1.21   -23.415040    5             
iter:   9  12:00:39  -2.42  -1.44   -23.354914    29            
iter:  10  12:00:40  -2.91  -1.61   -23.337203    4             
iter:  11  12:00:41  -3.30  -1.73   -23.324691    4             
iter:  12  12:00:43  -3.14  -1.82   -23.318671    4             
iter:  13  12:00:44  -4.10  -1.90   -23.316776    3             
iter:  14  12:00:45  -4.03  -1.94   -23.317121    3             
iter:  15  12:00:46  -3.84  -2.01   -23.314217    3             
iter:  16  12:00:47  -5.09  -2.71   -23.314043    3             
iter:  17  12:00:48  -4.80  -2.80   -23.313866    3             
iter:  18  12:00:49  -5.45  -3.04   -23.313831    3             
iter:  19  12:00:51  -6.26  -3.10   -23.313823    2             
iter:  20  12:00:52  -6.01  -3.14   -23.313817    3             
iter:  21  12:00:53  -6.08  -3.27   -23.313811    3             
iter:  22  12:00:54  -6.70  -3.41   -23.313804    2             
iter:  23  12:00:55  -6.58  -3.45   -23.313803    3             
iter:  24  12:00:56  -7.49  -3.49   -23.313803    2             
iter:  25  12:00:57  -6.98  -3.53   -23.313814    3             
iter:  26  12:00:59  -7.78  -3.94   -23.313810    2             
iter:  27  12:01:00  -7.64  -4.27   -23.313810    2             

Converged after 27 iterations.

Dipole moment: (-0.044346, -0.025603, -0.176638) |e|*Ang

Energy contributions relative to reference atoms: (reference = -22878.750211)

Kinetic:        +14.338463
Potential:      -13.043114
External:        +0.000000
XC:             -24.803726
Entropy (-ST):   -0.075756
Local:           +0.232444
--------------------------
Free energy:    -23.351688
Extrapolated:   -23.313810

Fermi level: -3.57881

Showing only first 2 kpts
 Kpt  Band  Eigenvalues  Occupancy
  0     7     -5.27423    0.11111
  0     8     -4.18245    0.11085
  0     9     -1.11585    0.00000
  0    10     -0.38978    0.00000

  1     7     -5.17474    0.11111
  1     8     -4.43032    0.11109
  1     9     -0.81151    0.00000
  1    10     -0.37882    0.00000


No gap
Timing:                              incl.     excl.
-----------------------------------------------------------
Hamiltonian:                         0.323     0.013   0.0% |
 Atomic:                             0.000     0.000   0.0% |
  XC Correction:                     0.000     0.000   0.0% |
 Calculate atomic Hamiltonians:      0.021     0.021   0.1% |
 Communicate:                        0.072     0.072   0.2% |
 Initialize Hamiltonian:             0.000     0.000   0.0% |
 Poisson:                            0.001     0.001   0.0% |
 XC 3D grid:                         0.215     0.215   0.6% |
LCAO initialization:                 1.190     0.137   0.4% |
 LCAO eigensolver:                   0.304     0.000   0.0% |
  Calculate projections:             0.000     0.000   0.0% |
  DenseAtomicCorrection:             0.000     0.000   0.0% |
  Distribute overlap matrix:         0.303     0.303   0.9% |
  Orbital Layouts:                   0.001     0.001   0.0% |
  Potential matrix:                  0.000     0.000   0.0% |
  Sum over cells:                    0.000     0.000   0.0% |
 LCAO to grid:                       0.647     0.647   2.0% ||
 Set positions (LCAO WFS):           0.102     0.062   0.2% |
  Basic WFS set positions:           0.001     0.001   0.0% |
  Basis functions set positions:     0.000     0.000   0.0% |
  P tci:                             0.000     0.000   0.0% |
  ST tci:                            0.012     0.012   0.0% |
  mktci:                             0.027     0.027   0.1% |
PWDescriptor:                        0.039     0.039   0.1% |
SCF-cycle:                          30.298     0.078   0.2% |
 Davidson:                          15.802     1.751   5.3% |-|
  Apply H:                           3.313     3.245   9.8% |---|
   HMM T:                            0.068     0.068   0.2% |
  Subspace diag:                     3.571     0.009   0.0% |
   calc_h_matrix:                    3.442     0.070   0.2% |
    Apply H:                         3.372     3.305  10.0% |---|
     HMM T:                          0.067     0.067   0.2% |
   diagonalize:                      0.035     0.035   0.1% |
   rotate_psi:                       0.086     0.086   0.3% |
  calc. matrices:                    6.961     0.402   1.2% |
   Apply H:                          6.559     6.436  19.4% |-------|
    HMM T:                           0.123     0.123   0.4% |
  diagonalize:                       0.074     0.074   0.2% |
  rotate_psi:                        0.131     0.131   0.4% |
 Density:                            6.294     0.001   0.0% |
  Atomic density matrices:           0.030     0.030   0.1% |
  Mix:                               2.668     2.668   8.0% |--|
  Multipole moments:                 0.004     0.004   0.0% |
  Pseudo density:                    3.591     2.280   6.9% |--|
   Symmetrize density:               1.310     1.310   4.0% |-|
 Hamiltonian:                        8.108     0.307   0.9% |
  Atomic:                            0.006     0.006   0.0% |
   XC Correction:                    0.000     0.000   0.0% |
  Calculate atomic Hamiltonians:     0.499     0.499   1.5% ||
  Communicate:                       1.736     1.736   5.2% |-|
  Poisson:                           0.021     0.021   0.1% |
  XC 3D grid:                        5.538     5.538  16.7% |------|
 Orthonormalize:                     0.016     0.000   0.0% |
  calc_s_matrix:                     0.001     0.001   0.0% |
  inverse-cholesky:                  0.002     0.002   0.0% |
  projections:                       0.011     0.011   0.0% |
  rotate_psi_s:                      0.002     0.002   0.0% |
Set symmetry:                        0.005     0.005   0.0% |
Other:                               1.317     1.317   4.0% |-|
-----------------------------------------------------------
Total:                                        33.171 100.0%

Memory usage: 195.14 MiB
Date: Mon Dec  9 12:01:00 2019
