
  ___ ___ ___ _ _ _  
 |   |   |_  | | | | 
 | | | | | . | | | | 
 |__ |  _|___|_____|  19.8.1
 |___|_|             

User:   fadjar@cn0015
Date:   Mon Dec  9 11:58:29 2019
Arch:   x86_64
Pid:    18739
Python: 3.7.3
gpaw:   /app/anaconda3/lib/python3.7/site-packages/gpaw
_gpaw:  /app/anaconda3/bin/gpaw-python
ase:    /app/anaconda3/lib/python3.7/site-packages/ase-3.18.0-py3.7.egg/ase (version 3.18.0)
numpy:  /app/anaconda3/lib/python3.7/site-packages/numpy (version 1.16.4)
scipy:  /app/anaconda3/lib/python3.7/site-packages/scipy (version 1.3.0)
libxc:  4.3.4
units:  Angstrom and eV
cores:  20

Input parameters:
  kpts: [6 6 1]
  mode: {ecut: 750.0,
         gammacentered: False,
         name: pw}
  xc: PBE

System changes: positions, numbers, cell, pbc, initial_charges, initial_magmoms 

Initialize ...

Al-setup:
  name: Aluminium
  id: 0292cae29f5d6237e50f6abdd43a7bdd
  Z: 13
  valence: 3
  core: 10
  charge: 0.0
  file: /app/gpaw-setups-0.9.20000/Al.PBE.gz
  compensation charges: gauss, rc=0.34, lmax=2
  cutoffs: 1.91(filt), 2.36(core),
  valence states:
                energy  radius
    3s(2.00)    -7.753   1.085
    3p(1.00)    -2.712   1.085
    *s          19.459   1.085
    *p          24.499   1.085
    *d           0.000   1.085

  Using partial waves for Al as LCAO basis

C-setup:
  name: Carbon
  id: 4aa54d4b901d75f77cc0ea3eec22967b
  Z: 6
  valence: 4
  core: 2
  charge: 0.0
  file: /app/gpaw-setups-0.9.20000/C.PBE.gz
  compensation charges: gauss, rc=0.20, lmax=2
  cutoffs: 1.14(filt), 1.14(core),
  valence states:
                energy  radius
    2s(2.00)   -13.751   0.635
    2p(2.00)    -5.284   0.635
    *s          13.461   0.635
    *p          21.927   0.635
    *d           0.000   0.635

  Using partial waves for C as LCAO basis

O-setup:
  name: Oxygen
  id: 32ecd46bf208036f09c70b0ec9a88b78
  Z: 8
  valence: 6
  core: 2
  charge: 0.0
  file: /app/gpaw-setups-0.9.20000/O.PBE.gz
  compensation charges: gauss, rc=0.21, lmax=2
  cutoffs: 1.17(filt), 0.83(core),
  valence states:
                energy  radius
    2s(2.00)   -23.961   0.688
    2p(4.00)    -9.029   0.598
    *s           3.251   0.688
    *p          18.182   0.598
    *d           0.000   0.619

  Using partial waves for O as LCAO basis

Reference energy: -22878.750211

Spin-paired calculation

Occupation numbers:
  Fermi-Dirac: width=0.1000 eV

Convergence criteria:
  Maximum total energy change: 0.0005 eV / electron
  Maximum integral of absolute density change: 0.0001 electrons
  Maximum integral of absolute eigenstate change: 4e-08 eV^2
  Maximum number of iterations: 333

Symmetries present (total): 6

  ( 1  0  0)  ( 1 -1  0)  ( 0  1  0)  ( 0 -1  0)  (-1  1  0)  (-1  0  0)
  ( 0  1  0)  ( 0 -1  0)  ( 1  0  0)  ( 1 -1  0)  (-1  0  0)  (-1  1  0)
  ( 0  0  1)  ( 0  0  1)  ( 0  0  1)  ( 0  0  1)  ( 0  0  1)  ( 0  0  1)
Note: your k-points are not as symmetric as your crystal!

36 k-points: 6 x 6 x 1 Monkhorst-Pack grid
12 k-points in the irreducible part of the Brillouin zone
       k-points in crystal coordinates                weights
   0:     0.08333333   -0.08333333    0.00000000          2/36
   1:     0.08333333    0.08333333    0.00000000          2/36
   2:     0.25000000   -0.25000000    0.00000000          2/36
   3:     0.25000000   -0.08333333    0.00000000          4/36
   4:     0.25000000    0.08333333    0.00000000          4/36
   5:     0.25000000    0.25000000    0.00000000          2/36
   6:     0.41666667   -0.41666667    0.00000000          2/36
   7:     0.41666667   -0.25000000    0.00000000          4/36
   8:     0.41666667   -0.08333333    0.00000000          4/36
   9:     0.41666667    0.08333333    0.00000000          4/36
          ...
  11:     0.41666667    0.41666667    0.00000000          2/36

Wave functions: Plane wave expansion
  Cutoff energy: 750.000 eV
  Number of coefficients (min, max): 12049, 12198
  Pulay-stress correction: 0.000000 eV/Ang^3 (de/decut=0.000000)
  Using Numpy's FFT
  ScaLapack parameters: grid=1x1, blocksize=None
  Wavefunction extrapolation:
    Improved wavefunction reuse through dual PAW basis 

Eigensolver
   Davidson(niter=2, smin=None, normalize=True) 

Densities:
  Coarse grid: 20*20*240 grid
  Fine grid: 40*40*480 grid
  Total Charge: 0.000000 

Density mixing:
  Method: separate
  Backend: pulay
  Linear mixing parameter: 0.05
  Mixing with 5 old densities
  Damping of long wave oscillations: 50 

Hamiltonian:
  XC and Coulomb potentials evaluated on a 40*40*480 grid
  Using the PBE Exchange-Correlation functional
 

XC parameters: PBE with 2 nearest neighbor stencil

Memory estimate:
  Process memory now: 108.78 MiB
  Calculator: 29.85 MiB
    Density: 9.14 MiB
      Arrays: 3.81 MiB
      Localized functions: 3.87 MiB
      Mixer: 1.46 MiB
    Hamiltonian: 2.59 MiB
      Arrays: 2.49 MiB
      XC: 0.00 MiB
      Poisson: 0.00 MiB
      vbar: 0.10 MiB
    Wavefunctions: 18.12 MiB
      Arrays psit_nG: 8.93 MiB
      Eigensolver: 3.95 MiB
      Projections: 0.01 MiB
      Projectors: 1.34 MiB
      PW-descriptor: 3.89 MiB

Total number of cores used: 20
Parallelization over k-points: 4
Domain decomposition: 1 x 1 x 5

Number of atoms: 5
Number of atomic orbitals: 20
Number of bands in calculation: 16
Bands to converge: occupied states only
Number of valence electrons: 19

... initialized

Initializing position-dependent things.

Density initialized from atomic densities
Creating initial wave functions:
  16 bands from LCAO basis set

                    
                    
                    
                    
       O            
                    
       C            
                    
                    
       Al           
                    
        Al          
                    
                    
           Al       
                    
                    
                    
                    

Positions:
   0 Al     1.430477    0.825886   16.000000    ( 0.0000,  0.0000,  0.0000)
   1 Al     0.000000    1.651773   18.335959    ( 0.0000,  0.0000,  0.0000)
   2 Al     0.000000    0.000000   20.671918    ( 0.0000,  0.0000,  0.0000)
   3 C      0.000000    0.000000   22.471918    ( 0.0000,  0.0000,  0.0000)
   4 O      0.000000    0.000000   23.901918    ( 0.0000,  0.0000,  0.0000)

Unit cell:
           periodic     x           y           z      points  spacing
  1. axis:    yes    2.860954    0.000000    0.000000    20     0.1239
  2. axis:    yes    1.430477    2.477659    0.000000    20     0.1239
  3. axis:    no     0.000000    0.000000   36.671918   240     0.1528

  Lengths:   2.860954   2.860954  36.671918
  Angles:   90.000000  90.000000  60.000000

Effective grid spacing dv^(1/3) = 0.1394

                     log10-error:    total        iterations:
           time      wfs    density  energy       fermi  poisson
iter:   1  11:58:32  +0.88   +inf   -27.906409    2             
iter:   2  11:58:33  -0.20  -0.57   -34.133053    32            
iter:   3  11:58:34  -1.92  -0.51   -23.897595    32            
iter:   4  11:58:35  -2.72  -0.92   -23.746202    4             
iter:   5  11:58:36  -1.19  -0.95   -24.075816    4             
iter:   6  11:58:37  -1.16  -0.98   -23.533776    33            
iter:   7  11:58:38  -2.49  -1.23   -23.452080    4             
iter:   8  11:58:39  -2.81  -1.39   -23.396604    4             
iter:   9  11:58:40  -2.60  -1.53   -23.339259    5             
iter:  10  11:58:41  -3.86  -1.69   -23.338998    3             
iter:  11  11:58:42  -3.80  -1.69   -23.340139    3             
iter:  12  11:58:42  -3.04  -1.70   -23.337439    3             
iter:  13  11:58:43  -3.47  -1.84   -23.329269    4             
iter:  14  11:58:44  -3.21  -1.98   -23.319450    4             
iter:  15  11:58:45  -4.13  -2.20   -23.318537    3             
iter:  16  11:58:46  -4.06  -2.26   -23.316522    3             
iter:  17  11:58:47  -4.78  -2.39   -23.316179    3             
iter:  18  11:58:48  -4.62  -2.49   -23.315903    3             
iter:  19  11:58:49  -5.55  -2.86   -23.315875    3             
iter:  20  11:58:50  -5.07  -2.90   -23.315751    3             
iter:  21  11:58:51  -5.74  -3.14   -23.315744    3             
iter:  22  11:58:51  -6.21  -3.26   -23.315751    3             
iter:  23  11:58:52  -6.81  -3.42   -23.315743    2             
iter:  24  11:58:53  -7.01  -3.45   -23.315745    2             
iter:  25  11:58:54  -7.11  -3.56   -23.315745    2             
iter:  26  11:58:55  -7.54  -3.75   -23.315746    2             
iter:  27  11:58:56  -8.04  -3.83   -23.315746    2             
iter:  28  11:58:57  -7.37  -3.87   -23.315749    2             
iter:  29  11:58:58  -7.36  -4.08   -23.315751    2             
iter:  30  11:58:59  -8.30  -4.25   -23.315751    2             

Converged after 30 iterations.

Dipole moment: (-0.044459, -0.025668, -0.188499) |e|*Ang

Energy contributions relative to reference atoms: (reference = -22878.750211)

Kinetic:        +14.335735
Potential:      -13.035837
External:        +0.000000
XC:             -24.809348
Entropy (-ST):   -0.075813
Local:           +0.231606
--------------------------
Free energy:    -23.353657
Extrapolated:   -23.315751

Fermi level: -2.99635

Showing only first 2 kpts
 Kpt  Band  Eigenvalues  Occupancy
  0     7     -4.69404    0.11111
  0     8     -3.59803    0.11084
  0     9     -0.53318    0.00000
  0    10      0.20251    0.00000

  1     7     -4.59456    0.11111
  1     8     -3.84584    0.11109
  1     9     -0.21881    0.00000
  1    10      0.20426    0.00000


No gap
Timing:                              incl.     excl.
-----------------------------------------------------------
Hamiltonian:                         0.246     0.008   0.0% |
 Atomic:                             0.000     0.000   0.0% |
  XC Correction:                     0.000     0.000   0.0% |
 Calculate atomic Hamiltonians:      0.008     0.008   0.0% |
 Communicate:                        0.065     0.065   0.2% |
 Initialize Hamiltonian:             0.000     0.000   0.0% |
 Poisson:                            0.000     0.000   0.0% |
 XC 3D grid:                         0.165     0.165   0.6% |
LCAO initialization:                 1.068     0.136   0.5% |
 LCAO eigensolver:                   0.268     0.000   0.0% |
  Calculate projections:             0.000     0.000   0.0% |
  DenseAtomicCorrection:             0.000     0.000   0.0% |
  Distribute overlap matrix:         0.266     0.266   0.9% |
  Orbital Layouts:                   0.001     0.001   0.0% |
  Potential matrix:                  0.000     0.000   0.0% |
  Sum over cells:                    0.000     0.000   0.0% |
 LCAO to grid:                       0.572     0.572   1.9% ||
 Set positions (LCAO WFS):           0.092     0.049   0.2% |
  Basic WFS set positions:           0.001     0.001   0.0% |
  Basis functions set positions:     0.000     0.000   0.0% |
  P tci:                             0.000     0.000   0.0% |
  ST tci:                            0.013     0.013   0.0% |
  mktci:                             0.028     0.028   0.1% |
PWDescriptor:                        0.030     0.030   0.1% |
SCF-cycle:                          26.598     0.220   0.7% |
 Davidson:                          12.863     1.440   4.8% |-|
  Apply H:                           2.638     2.589   8.7% |--|
   HMM T:                            0.049     0.049   0.2% |
  Subspace diag:                     2.899     0.009   0.0% |
   calc_h_matrix:                    2.768     0.060   0.2% |
    Apply H:                         2.708     2.650   8.9% |---|
     HMM T:                          0.058     0.058   0.2% |
   diagonalize:                      0.039     0.039   0.1% |
   rotate_psi:                       0.083     0.083   0.3% |
  calc. matrices:                    5.670     0.369   1.2% |
   Apply H:                          5.301     5.191  17.4% |------|
    HMM T:                           0.110     0.110   0.4% |
  diagonalize:                       0.085     0.085   0.3% |
  rotate_psi:                        0.130     0.130   0.4% |
 Density:                            5.503     0.001   0.0% |
  Atomic density matrices:           0.029     0.029   0.1% |
  Mix:                               2.454     2.454   8.2% |--|
  Multipole moments:                 0.004     0.004   0.0% |
  Pseudo density:                    3.015     1.805   6.0% |-|
   Symmetrize density:               1.210     1.210   4.0% |-|
 Hamiltonian:                        7.997     0.247   0.8% |
  Atomic:                            0.008     0.007   0.0% |
   XC Correction:                    0.000     0.000   0.0% |
  Calculate atomic Hamiltonians:     0.581     0.581   1.9% ||
  Communicate:                       1.883     1.883   6.3% |--|
  Poisson:                           0.018     0.018   0.1% |
  XC 3D grid:                        5.260     5.260  17.6% |------|
 Orthonormalize:                     0.015     0.000   0.0% |
  calc_s_matrix:                     0.001     0.001   0.0% |
  inverse-cholesky:                  0.002     0.002   0.0% |
  projections:                       0.010     0.010   0.0% |
  rotate_psi_s:                      0.002     0.002   0.0% |
Set symmetry:                        0.004     0.004   0.0% |
Other:                               1.947     1.947   6.5% |--|
-----------------------------------------------------------
Total:                                        29.893 100.0%

Memory usage: 158.88 MiB
Date: Mon Dec  9 11:58:59 2019
