
  ___ ___ ___ _ _ _  
 |   |   |_  | | | | 
 | | | | | . | | | | 
 |__ |  _|___|_____|  19.8.1
 |___|_|             

User:   fadjar@cn0015
Date:   Mon Dec  9 11:54:30 2019
Arch:   x86_64
Pid:    18015
Python: 3.7.3
gpaw:   /app/anaconda3/lib/python3.7/site-packages/gpaw
_gpaw:  /app/anaconda3/bin/gpaw-python
ase:    /app/anaconda3/lib/python3.7/site-packages/ase-3.18.0-py3.7.egg/ase (version 3.18.0)
numpy:  /app/anaconda3/lib/python3.7/site-packages/numpy (version 1.16.4)
scipy:  /app/anaconda3/lib/python3.7/site-packages/scipy (version 1.3.0)
libxc:  4.3.4
units:  Angstrom and eV
cores:  20

Input parameters:
  kpts: [6 6 1]
  mode: {ecut: 750.0,
         gammacentered: False,
         name: pw}
  xc: PBE

System changes: positions, numbers, cell, pbc, initial_charges, initial_magmoms 

Initialize ...

Al-setup:
  name: Aluminium
  id: 0292cae29f5d6237e50f6abdd43a7bdd
  Z: 13
  valence: 3
  core: 10
  charge: 0.0
  file: /app/gpaw-setups-0.9.20000/Al.PBE.gz
  compensation charges: gauss, rc=0.34, lmax=2
  cutoffs: 1.91(filt), 2.36(core),
  valence states:
                energy  radius
    3s(2.00)    -7.753   1.085
    3p(1.00)    -2.712   1.085
    *s          19.459   1.085
    *p          24.499   1.085
    *d           0.000   1.085

  Using partial waves for Al as LCAO basis

C-setup:
  name: Carbon
  id: 4aa54d4b901d75f77cc0ea3eec22967b
  Z: 6
  valence: 4
  core: 2
  charge: 0.0
  file: /app/gpaw-setups-0.9.20000/C.PBE.gz
  compensation charges: gauss, rc=0.20, lmax=2
  cutoffs: 1.14(filt), 1.14(core),
  valence states:
                energy  radius
    2s(2.00)   -13.751   0.635
    2p(2.00)    -5.284   0.635
    *s          13.461   0.635
    *p          21.927   0.635
    *d           0.000   0.635

  Using partial waves for C as LCAO basis

O-setup:
  name: Oxygen
  id: 32ecd46bf208036f09c70b0ec9a88b78
  Z: 8
  valence: 6
  core: 2
  charge: 0.0
  file: /app/gpaw-setups-0.9.20000/O.PBE.gz
  compensation charges: gauss, rc=0.21, lmax=2
  cutoffs: 1.17(filt), 0.83(core),
  valence states:
                energy  radius
    2s(2.00)   -23.961   0.688
    2p(4.00)    -9.029   0.598
    *s           3.251   0.688
    *p          18.182   0.598
    *d           0.000   0.619

  Using partial waves for O as LCAO basis

Reference energy: -22878.750211

Spin-paired calculation

Occupation numbers:
  Fermi-Dirac: width=0.1000 eV

Convergence criteria:
  Maximum total energy change: 0.0005 eV / electron
  Maximum integral of absolute density change: 0.0001 electrons
  Maximum integral of absolute eigenstate change: 4e-08 eV^2
  Maximum number of iterations: 333

Symmetries present (total): 6

  ( 1  0  0)  ( 1 -1  0)  ( 0  1  0)  ( 0 -1  0)  (-1  1  0)  (-1  0  0)
  ( 0  1  0)  ( 0 -1  0)  ( 1  0  0)  ( 1 -1  0)  (-1  0  0)  (-1  1  0)
  ( 0  0  1)  ( 0  0  1)  ( 0  0  1)  ( 0  0  1)  ( 0  0  1)  ( 0  0  1)
Note: your k-points are not as symmetric as your crystal!

36 k-points: 6 x 6 x 1 Monkhorst-Pack grid
12 k-points in the irreducible part of the Brillouin zone
       k-points in crystal coordinates                weights
   0:     0.08333333   -0.08333333    0.00000000          2/36
   1:     0.08333333    0.08333333    0.00000000          2/36
   2:     0.25000000   -0.25000000    0.00000000          2/36
   3:     0.25000000   -0.08333333    0.00000000          4/36
   4:     0.25000000    0.08333333    0.00000000          4/36
   5:     0.25000000    0.25000000    0.00000000          2/36
   6:     0.41666667   -0.41666667    0.00000000          2/36
   7:     0.41666667   -0.25000000    0.00000000          4/36
   8:     0.41666667   -0.08333333    0.00000000          4/36
   9:     0.41666667    0.08333333    0.00000000          4/36
          ...
  11:     0.41666667    0.41666667    0.00000000          2/36

Wave functions: Plane wave expansion
  Cutoff energy: 750.000 eV
  Number of coefficients (min, max): 9417, 9545
  Pulay-stress correction: 0.000000 eV/Ang^3 (de/decut=0.000000)
  Using Numpy's FFT
  ScaLapack parameters: grid=1x1, blocksize=None
  Wavefunction extrapolation:
    Improved wavefunction reuse through dual PAW basis 

Eigensolver
   Davidson(niter=2, smin=None, normalize=True) 

Densities:
  Coarse grid: 20*20*189 grid
  Fine grid: 40*40*378 grid
  Total Charge: 0.000000 

Density mixing:
  Method: separate
  Backend: pulay
  Linear mixing parameter: 0.05
  Mixing with 5 old densities
  Damping of long wave oscillations: 50 

Hamiltonian:
  XC and Coulomb potentials evaluated on a 40*40*378 grid
  Using the PBE Exchange-Correlation functional
 

XC parameters: PBE with 2 nearest neighbor stencil

Memory estimate:
  Process memory now: 159.91 MiB
  Calculator: 23.46 MiB
    Density: 7.20 MiB
      Arrays: 3.02 MiB
      Localized functions: 3.02 MiB
      Mixer: 1.16 MiB
    Hamiltonian: 2.05 MiB
      Arrays: 1.97 MiB
      XC: 0.00 MiB
      Poisson: 0.00 MiB
      vbar: 0.08 MiB
    Wavefunctions: 14.21 MiB
      Arrays psit_nG: 6.99 MiB
      Eigensolver: 3.10 MiB
      Projections: 0.01 MiB
      Projectors: 1.05 MiB
      PW-descriptor: 3.06 MiB

Total number of cores used: 20
Parallelization over k-points: 4
Domain decomposition: 1 x 1 x 5

Number of atoms: 5
Number of atomic orbitals: 20
Number of bands in calculation: 16
Bands to converge: occupied states only
Number of valence electrons: 19

... initialized

Initializing position-dependent things.

Density initialized from atomic densities
Creating initial wave functions:
  16 bands from LCAO basis set

                    
                    
                    
                    
       O            
                    
       C            
                    
                    
       Al           
                    
        Al          
                    
                    
           Al       
                    
                    
                    
                    

Positions:
   0 Al     1.430477    0.825886   12.000000    ( 0.0000,  0.0000,  0.0000)
   1 Al     0.000000    1.651773   14.335959    ( 0.0000,  0.0000,  0.0000)
   2 Al     0.000000    0.000000   16.671918    ( 0.0000,  0.0000,  0.0000)
   3 C      0.000000    0.000000   18.471918    ( 0.0000,  0.0000,  0.0000)
   4 O      0.000000    0.000000   19.901918    ( 0.0000,  0.0000,  0.0000)

Unit cell:
           periodic     x           y           z      points  spacing
  1. axis:    yes    2.860954    0.000000    0.000000    20     0.1239
  2. axis:    yes    1.430477    2.477659    0.000000    20     0.1239
  3. axis:    no     0.000000    0.000000   28.671918   189     0.1517

  Lengths:   2.860954   2.860954  28.671918
  Angles:   90.000000  90.000000  60.000000

Effective grid spacing dv^(1/3) = 0.1390

                     log10-error:    total        iterations:
           time      wfs    density  energy       fermi  poisson
iter:   1  11:54:33  +0.87   +inf   -26.746950    3             
iter:   2  11:54:33  -0.61  -0.64   -27.997210    4             
iter:   3  11:54:34  -2.23  -0.69   -23.704577    4             
iter:   4  11:54:35  -2.99  -0.95   -23.642552    3             
iter:   5  11:54:35  -1.18  -0.97   -24.018831    4             
iter:   6  11:54:36  -1.56  -1.01   -23.407398    32            
iter:   7  11:54:37  -2.16  -1.36   -23.389303    4             
iter:   8  11:54:38  -3.06  -1.49   -23.339354    5             
iter:   9  11:54:38  -3.58  -1.71   -23.346409    4             
iter:  10  11:54:39  -3.33  -1.66   -23.337837    4             
iter:  11  11:54:40  -3.54  -1.77   -23.335755    4             
iter:  12  11:54:40  -3.59  -1.84   -23.325492    3             
iter:  13  11:54:41  -3.50  -2.09   -23.321702    4             
iter:  14  11:54:42  -4.19  -2.31   -23.320691    2             
iter:  15  11:54:42  -4.13  -2.47   -23.319919    3             
iter:  16  11:54:43  -4.81  -2.80   -23.319789    3             
iter:  17  11:54:44  -5.50  -2.95   -23.319764    3             
iter:  18  11:54:44  -5.41  -3.01   -23.319675    3             
iter:  19  11:54:45  -6.35  -3.32   -23.319677    3             
iter:  20  11:54:46  -6.83  -3.41   -23.319675    2             
iter:  21  11:54:46  -6.00  -3.44   -23.319682    2             
iter:  22  11:54:47  -6.89  -3.54   -23.319681    2             
iter:  23  11:54:48  -7.02  -3.74   -23.319682    2             
iter:  24  11:54:48  -7.63  -3.91   -23.319679    2             
iter:  25  11:54:49  -7.89  -3.94   -23.319679    2             
iter:  26  11:54:50  -7.65  -4.06   -23.319679    2             

Converged after 26 iterations.

Dipole moment: (-0.044680, -0.025796, -0.210765) |e|*Ang

Energy contributions relative to reference atoms: (reference = -22878.750211)

Kinetic:        +14.366258
Potential:      -13.061795
External:        +0.000000
XC:             -24.822096
Entropy (-ST):   -0.075914
Local:           +0.235912
--------------------------
Free energy:    -23.357636
Extrapolated:   -23.319679

Fermi level: -2.08913

Showing only first 2 kpts
 Kpt  Band  Eigenvalues  Occupancy
  0     7     -3.79082    0.11111
  0     8     -2.68726    0.11083
  0     9      0.37425    0.00000
  0    10      1.12662    0.00000

  1     7     -3.69129    0.11111
  1     8     -2.93498    0.11109
  1     9      0.70626    0.00000
  1    10      1.11263    0.00000


No gap
Timing:                              incl.     excl.
-----------------------------------------------------------
Hamiltonian:                         0.212     0.007   0.0% |
 Atomic:                             0.000     0.000   0.0% |
  XC Correction:                     0.000     0.000   0.0% |
 Calculate atomic Hamiltonians:      0.006     0.006   0.0% |
 Communicate:                        0.065     0.065   0.3% |
 Initialize Hamiltonian:             0.000     0.000   0.0% |
 Poisson:                            0.000     0.000   0.0% |
 XC 3D grid:                         0.133     0.133   0.7% |
LCAO initialization:                 0.919     0.137   0.7% |
 LCAO eigensolver:                   0.222     0.000   0.0% |
  Calculate projections:             0.000     0.000   0.0% |
  DenseAtomicCorrection:             0.000     0.000   0.0% |
  Distribute overlap matrix:         0.221     0.221   1.1% |
  Orbital Layouts:                   0.001     0.001   0.0% |
  Potential matrix:                  0.000     0.000   0.0% |
  Sum over cells:                    0.000     0.000   0.0% |
 LCAO to grid:                       0.464     0.464   2.4% ||
 Set positions (LCAO WFS):           0.096     0.054   0.3% |
  Basic WFS set positions:           0.001     0.001   0.0% |
  Basis functions set positions:     0.000     0.000   0.0% |
  P tci:                             0.000     0.000   0.0% |
  ST tci:                            0.013     0.013   0.1% |
  mktci:                             0.028     0.028   0.1% |
PWDescriptor:                        0.021     0.021   0.1% |
SCF-cycle:                          17.149     0.086   0.4% |
 Davidson:                           7.973     0.990   5.1% |-|
  Apply H:                           1.607     1.565   8.0% |--|
   HMM T:                            0.042     0.042   0.2% |
  Subspace diag:                     1.757     0.007   0.0% |
   calc_h_matrix:                    1.674     0.042   0.2% |
    Apply H:                         1.632     1.589   8.2% |--|
     HMM T:                          0.043     0.043   0.2% |
   diagonalize:                      0.028     0.028   0.1% |
   rotate_psi:                       0.047     0.047   0.2% |
  calc. matrices:                    3.481     0.268   1.4% ||
   Apply H:                          3.213     3.129  16.1% |-----|
    HMM T:                           0.084     0.084   0.4% |
  diagonalize:                       0.064     0.064   0.3% |
  rotate_psi:                        0.073     0.073   0.4% |
 Density:                            3.536     0.001   0.0% |
  Atomic density matrices:           0.045     0.045   0.2% |
  Mix:                               1.614     1.614   8.3% |--|
  Multipole moments:                 0.004     0.004   0.0% |
  Pseudo density:                    1.873     1.054   5.4% |-|
   Symmetrize density:               0.819     0.819   4.2% |-|
 Hamiltonian:                        5.543     0.191   1.0% |
  Atomic:                            0.007     0.007   0.0% |
   XC Correction:                    0.000     0.000   0.0% |
  Calculate atomic Hamiltonians:     0.335     0.335   1.7% ||
  Communicate:                       1.612     1.612   8.3% |--|
  Poisson:                           0.009     0.009   0.0% |
  XC 3D grid:                        3.390     3.390  17.4% |------|
 Orthonormalize:                     0.011     0.000   0.0% |
  calc_s_matrix:                     0.001     0.001   0.0% |
  inverse-cholesky:                  0.001     0.001   0.0% |
  projections:                       0.006     0.006   0.0% |
  rotate_psi_s:                      0.002     0.002   0.0% |
Set symmetry:                        0.005     0.005   0.0% |
Other:                               1.143     1.143   5.9% |-|
-----------------------------------------------------------
Total:                                        19.450 100.0%

Memory usage: 169.14 MiB
Date: Mon Dec  9 11:54:50 2019
