
  ___ ___ ___ _ _ _  
 |   |   |_  | | | | 
 | | | | | . | | | | 
 |__ |  _|___|_____|  19.8.1
 |___|_|             

User:   fadjar@cn0015
Date:   Mon Dec  9 11:55:09 2019
Arch:   x86_64
Pid:    18015
Python: 3.7.3
gpaw:   /app/anaconda3/lib/python3.7/site-packages/gpaw
_gpaw:  /app/anaconda3/bin/gpaw-python
ase:    /app/anaconda3/lib/python3.7/site-packages/ase-3.18.0-py3.7.egg/ase (version 3.18.0)
numpy:  /app/anaconda3/lib/python3.7/site-packages/numpy (version 1.16.4)
scipy:  /app/anaconda3/lib/python3.7/site-packages/scipy (version 1.3.0)
libxc:  4.3.4
units:  Angstrom and eV
cores:  20

Input parameters:
  kpts: [6 6 1]
  mode: {ecut: 750.0,
         gammacentered: False,
         name: pw}
  xc: PBE

System changes: positions, numbers, cell, pbc, initial_charges, initial_magmoms 

Initialize ...

Al-setup:
  name: Aluminium
  id: 0292cae29f5d6237e50f6abdd43a7bdd
  Z: 13
  valence: 3
  core: 10
  charge: 0.0
  file: /app/gpaw-setups-0.9.20000/Al.PBE.gz
  compensation charges: gauss, rc=0.34, lmax=2
  cutoffs: 1.91(filt), 2.36(core),
  valence states:
                energy  radius
    3s(2.00)    -7.753   1.085
    3p(1.00)    -2.712   1.085
    *s          19.459   1.085
    *p          24.499   1.085
    *d           0.000   1.085

  Using partial waves for Al as LCAO basis

C-setup:
  name: Carbon
  id: 4aa54d4b901d75f77cc0ea3eec22967b
  Z: 6
  valence: 4
  core: 2
  charge: 0.0
  file: /app/gpaw-setups-0.9.20000/C.PBE.gz
  compensation charges: gauss, rc=0.20, lmax=2
  cutoffs: 1.14(filt), 1.14(core),
  valence states:
                energy  radius
    2s(2.00)   -13.751   0.635
    2p(2.00)    -5.284   0.635
    *s          13.461   0.635
    *p          21.927   0.635
    *d           0.000   0.635

  Using partial waves for C as LCAO basis

O-setup:
  name: Oxygen
  id: 32ecd46bf208036f09c70b0ec9a88b78
  Z: 8
  valence: 6
  core: 2
  charge: 0.0
  file: /app/gpaw-setups-0.9.20000/O.PBE.gz
  compensation charges: gauss, rc=0.21, lmax=2
  cutoffs: 1.17(filt), 0.83(core),
  valence states:
                energy  radius
    2s(2.00)   -23.961   0.688
    2p(4.00)    -9.029   0.598
    *s           3.251   0.688
    *p          18.182   0.598
    *d           0.000   0.619

  Using partial waves for O as LCAO basis

Reference energy: -22878.750211

Spin-paired calculation

Occupation numbers:
  Fermi-Dirac: width=0.1000 eV

Convergence criteria:
  Maximum total energy change: 0.0005 eV / electron
  Maximum integral of absolute density change: 0.0001 electrons
  Maximum integral of absolute eigenstate change: 4e-08 eV^2
  Maximum number of iterations: 333

Symmetries present (total): 6

  ( 1  0  0)  ( 1 -1  0)  ( 0  1  0)  ( 0 -1  0)  (-1  1  0)  (-1  0  0)
  ( 0  1  0)  ( 0 -1  0)  ( 1  0  0)  ( 1 -1  0)  (-1  0  0)  (-1  1  0)
  ( 0  0  1)  ( 0  0  1)  ( 0  0  1)  ( 0  0  1)  ( 0  0  1)  ( 0  0  1)
Note: your k-points are not as symmetric as your crystal!

36 k-points: 6 x 6 x 1 Monkhorst-Pack grid
12 k-points in the irreducible part of the Brillouin zone
       k-points in crystal coordinates                weights
   0:     0.08333333   -0.08333333    0.00000000          2/36
   1:     0.08333333    0.08333333    0.00000000          2/36
   2:     0.25000000   -0.25000000    0.00000000          2/36
   3:     0.25000000   -0.08333333    0.00000000          4/36
   4:     0.25000000    0.08333333    0.00000000          4/36
   5:     0.25000000    0.25000000    0.00000000          2/36
   6:     0.41666667   -0.41666667    0.00000000          2/36
   7:     0.41666667   -0.25000000    0.00000000          4/36
   8:     0.41666667   -0.08333333    0.00000000          4/36
   9:     0.41666667    0.08333333    0.00000000          4/36
          ...
  11:     0.41666667    0.41666667    0.00000000          2/36

Wave functions: Plane wave expansion
  Cutoff energy: 750.000 eV
  Number of coefficients (min, max): 10732, 10873
  Pulay-stress correction: 0.000000 eV/Ang^3 (de/decut=0.000000)
  Using Numpy's FFT
  ScaLapack parameters: grid=1x1, blocksize=None
  Wavefunction extrapolation:
    Improved wavefunction reuse through dual PAW basis 

Eigensolver
   Davidson(niter=2, smin=None, normalize=True) 

Densities:
  Coarse grid: 20*20*210 grid
  Fine grid: 40*40*420 grid
  Total Charge: 0.000000 

Density mixing:
  Method: separate
  Backend: pulay
  Linear mixing parameter: 0.05
  Mixing with 5 old densities
  Damping of long wave oscillations: 50 

Hamiltonian:
  XC and Coulomb potentials evaluated on a 40*40*420 grid
  Using the PBE Exchange-Correlation functional
 

XC parameters: PBE with 2 nearest neighbor stencil

Memory estimate:
  Process memory now: 172.70 MiB
  Calculator: 26.43 MiB
    Density: 8.06 MiB
      Arrays: 3.33 MiB
      Localized functions: 3.45 MiB
      Mixer: 1.28 MiB
    Hamiltonian: 2.27 MiB
      Arrays: 2.18 MiB
      XC: 0.00 MiB
      Poisson: 0.00 MiB
      vbar: 0.09 MiB
    Wavefunctions: 16.09 MiB
      Arrays psit_nG: 7.96 MiB
      Eigensolver: 3.52 MiB
      Projections: 0.01 MiB
      Projectors: 1.19 MiB
      PW-descriptor: 3.40 MiB

Total number of cores used: 20
Parallelization over k-points: 4
Domain decomposition: 1 x 1 x 5

Number of atoms: 5
Number of atomic orbitals: 20
Number of bands in calculation: 16
Bands to converge: occupied states only
Number of valence electrons: 19

... initialized

Initializing position-dependent things.

Density initialized from atomic densities
Creating initial wave functions:
  16 bands from LCAO basis set

                    
                    
                    
                    
       O            
                    
       C            
                    
                    
       Al           
                    
        Al          
                    
                    
           Al       
                    
                    
                    
                    

Positions:
   0 Al     1.430477    0.825886   14.000000    ( 0.0000,  0.0000,  0.0000)
   1 Al     0.000000    1.651773   16.335959    ( 0.0000,  0.0000,  0.0000)
   2 Al     0.000000    0.000000   18.671918    ( 0.0000,  0.0000,  0.0000)
   3 C      0.000000    0.000000   20.471918    ( 0.0000,  0.0000,  0.0000)
   4 O      0.000000    0.000000   21.901918    ( 0.0000,  0.0000,  0.0000)

Unit cell:
           periodic     x           y           z      points  spacing
  1. axis:    yes    2.860954    0.000000    0.000000    20     0.1239
  2. axis:    yes    1.430477    2.477659    0.000000    20     0.1239
  3. axis:    no     0.000000    0.000000   32.671918   210     0.1556

  Lengths:   2.860954   2.860954  32.671918
  Angles:   90.000000  90.000000  60.000000

Effective grid spacing dv^(1/3) = 0.1402

                     log10-error:    total        iterations:
           time      wfs    density  energy       fermi  poisson
iter:   1  11:55:12  +0.88   +inf   -27.363096    3             
iter:   2  11:55:13  -0.36  -0.60   -31.104279    23            
iter:   3  11:55:14  -2.10  -0.58   -23.799285    32            
iter:   4  11:55:14  -2.84  -0.93   -23.697432    4             
iter:   5  11:55:15  -1.19  -0.96   -24.058146    3             
iter:   6  11:55:16  -1.48  -0.99   -23.405148    29            
iter:   7  11:55:17  -2.18  -1.33   -23.397926    4             
iter:   8  11:55:17  -2.77  -1.46   -23.350392    5             
iter:   9  11:55:18  -3.64  -1.64   -23.340302    4             
iter:  10  11:55:19  -4.35  -1.70   -23.344142    3             
iter:  11  11:55:20  -2.85  -1.68   -23.325806    5             
iter:  12  11:55:20  -3.48  -1.97   -23.320444    3             
iter:  13  11:55:21  -4.43  -2.20   -23.318865    3             
iter:  14  11:55:22  -4.57  -2.30   -23.318032    3             
iter:  15  11:55:23  -4.81  -2.53   -23.317781    3             
iter:  16  11:55:23  -5.08  -2.64   -23.317644    3             
iter:  17  11:55:24  -4.96  -2.74   -23.317439    3             
iter:  18  11:55:25  -5.69  -3.06   -23.317421    3             
iter:  19  11:55:26  -6.42  -3.18   -23.317423    2             
iter:  20  11:55:26  -6.20  -3.24   -23.317421    2             
iter:  21  11:55:27  -6.65  -3.41   -23.317426    2             
iter:  22  11:55:28  -6.79  -3.51   -23.317421    2             
iter:  23  11:55:29  -7.52  -3.71   -23.317423    2             
iter:  24  11:55:29  -7.30  -3.74   -23.317425    2             
iter:  25  11:55:30  -7.69  -3.83   -23.317428    2             
iter:  26  11:55:31  -7.99  -4.02   -23.317428    2             

Converged after 26 iterations.

Dipole moment: (-0.044543, -0.025717, -0.197737) |e|*Ang

Energy contributions relative to reference atoms: (reference = -22878.750211)

Kinetic:        +14.362304
Potential:      -13.061726
External:        +0.000000
XC:             -24.815683
Entropy (-ST):   -0.075849
Local:           +0.235601
--------------------------
Free energy:    -23.355353
Extrapolated:   -23.317428

Fermi level: -2.59856

Showing only first 2 kpts
 Kpt  Band  Eigenvalues  Occupancy
  0     7     -4.29738    0.11111
  0     8     -3.19881    0.11084
  0     9     -0.13500    0.00000
  0    10      0.60758    0.00000

  1     7     -4.19785    0.11111
  1     8     -3.44657    0.11109
  1     9      0.18656    0.00000
  1    10      0.60284    0.00000


No gap
Timing:                              incl.     excl.
-----------------------------------------------------------
Hamiltonian:                         0.231     0.007   0.0% |
 Atomic:                             0.000     0.000   0.0% |
  XC Correction:                     0.000     0.000   0.0% |
 Calculate atomic Hamiltonians:      0.009     0.009   0.0% |
 Communicate:                        0.065     0.065   0.3% |
 Initialize Hamiltonian:             0.000     0.000   0.0% |
 Poisson:                            0.000     0.000   0.0% |
 XC 3D grid:                         0.149     0.149   0.7% |
LCAO initialization:                 0.971     0.137   0.6% |
 LCAO eigensolver:                   0.238     0.000   0.0% |
  Calculate projections:             0.000     0.000   0.0% |
  DenseAtomicCorrection:             0.000     0.000   0.0% |
  Distribute overlap matrix:         0.237     0.237   1.1% |
  Orbital Layouts:                   0.001     0.001   0.0% |
  Potential matrix:                  0.000     0.000   0.0% |
  Sum over cells:                    0.000     0.000   0.0% |
 LCAO to grid:                       0.501     0.501   2.3% ||
 Set positions (LCAO WFS):           0.095     0.053   0.2% |
  Basic WFS set positions:           0.001     0.001   0.0% |
  Basis functions set positions:     0.000     0.000   0.0% |
  P tci:                             0.000     0.000   0.0% |
  ST tci:                            0.013     0.013   0.1% |
  mktci:                             0.027     0.027   0.1% |
PWDescriptor:                        0.025     0.025   0.1% |
SCF-cycle:                          19.092     0.074   0.3% |
 Davidson:                           9.092     1.169   5.4% |-|
  Apply H:                           1.847     1.801   8.4% |--|
   HMM T:                            0.046     0.046   0.2% |
  Subspace diag:                     2.015     0.008   0.0% |
   calc_h_matrix:                    1.927     0.054   0.3% |
    Apply H:                         1.873     1.825   8.5% |--|
     HMM T:                          0.048     0.048   0.2% |
   diagonalize:                      0.031     0.031   0.1% |
   rotate_psi:                       0.050     0.050   0.2% |
  calc. matrices:                    3.906     0.310   1.4% ||
   Apply H:                          3.596     3.504  16.3% |------|
    HMM T:                           0.092     0.092   0.4% |
  diagonalize:                       0.070     0.070   0.3% |
  rotate_psi:                        0.086     0.086   0.4% |
 Density:                            3.939     0.001   0.0% |
  Atomic density matrices:           0.047     0.047   0.2% |
  Mix:                               1.747     1.747   8.1% |--|
  Multipole moments:                 0.004     0.004   0.0% |
  Pseudo density:                    2.141     1.229   5.7% |-|
   Symmetrize density:               0.912     0.912   4.2% |-|
 Hamiltonian:                        5.976     0.222   1.0% |
  Atomic:                            0.006     0.006   0.0% |
   XC Correction:                    0.000     0.000   0.0% |
  Calculate atomic Hamiltonians:     0.312     0.312   1.5% ||
  Communicate:                       1.631     1.631   7.6% |--|
  Poisson:                           0.015     0.015   0.1% |
  XC 3D grid:                        3.790     3.790  17.6% |------|
 Orthonormalize:                     0.011     0.000   0.0% |
  calc_s_matrix:                     0.001     0.001   0.0% |
  inverse-cholesky:                  0.001     0.001   0.0% |
  projections:                       0.007     0.007   0.0% |
  rotate_psi_s:                      0.002     0.002   0.0% |
Set symmetry:                        0.005     0.005   0.0% |
Other:                               1.189     1.189   5.5% |-|
-----------------------------------------------------------
Total:                                        21.512 100.0%

Memory usage: 179.29 MiB
Date: Mon Dec  9 11:55:31 2019
