
  ___ ___ ___ _ _ _  
 |   |   |_  | | | | 
 | | | | | . | | | | 
 |__ |  _|___|_____|  19.8.1
 |___|_|             

User:   fadjar@cn0015
Date:   Mon Dec  9 11:55:31 2019
Arch:   x86_64
Pid:    18015
Python: 3.7.3
gpaw:   /app/anaconda3/lib/python3.7/site-packages/gpaw
_gpaw:  /app/anaconda3/bin/gpaw-python
ase:    /app/anaconda3/lib/python3.7/site-packages/ase-3.18.0-py3.7.egg/ase (version 3.18.0)
numpy:  /app/anaconda3/lib/python3.7/site-packages/numpy (version 1.16.4)
scipy:  /app/anaconda3/lib/python3.7/site-packages/scipy (version 1.3.0)
libxc:  4.3.4
units:  Angstrom and eV
cores:  20

Input parameters:
  kpts: [6 6 1]
  mode: {ecut: 750.0,
         gammacentered: False,
         name: pw}
  xc: PBE

System changes: positions, numbers, cell, pbc, initial_charges, initial_magmoms 

Initialize ...

Al-setup:
  name: Aluminium
  id: 0292cae29f5d6237e50f6abdd43a7bdd
  Z: 13
  valence: 3
  core: 10
  charge: 0.0
  file: /app/gpaw-setups-0.9.20000/Al.PBE.gz
  compensation charges: gauss, rc=0.34, lmax=2
  cutoffs: 1.91(filt), 2.36(core),
  valence states:
                energy  radius
    3s(2.00)    -7.753   1.085
    3p(1.00)    -2.712   1.085
    *s          19.459   1.085
    *p          24.499   1.085
    *d           0.000   1.085

  Using partial waves for Al as LCAO basis

C-setup:
  name: Carbon
  id: 4aa54d4b901d75f77cc0ea3eec22967b
  Z: 6
  valence: 4
  core: 2
  charge: 0.0
  file: /app/gpaw-setups-0.9.20000/C.PBE.gz
  compensation charges: gauss, rc=0.20, lmax=2
  cutoffs: 1.14(filt), 1.14(core),
  valence states:
                energy  radius
    2s(2.00)   -13.751   0.635
    2p(2.00)    -5.284   0.635
    *s          13.461   0.635
    *p          21.927   0.635
    *d           0.000   0.635

  Using partial waves for C as LCAO basis

O-setup:
  name: Oxygen
  id: 32ecd46bf208036f09c70b0ec9a88b78
  Z: 8
  valence: 6
  core: 2
  charge: 0.0
  file: /app/gpaw-setups-0.9.20000/O.PBE.gz
  compensation charges: gauss, rc=0.21, lmax=2
  cutoffs: 1.17(filt), 0.83(core),
  valence states:
                energy  radius
    2s(2.00)   -23.961   0.688
    2p(4.00)    -9.029   0.598
    *s           3.251   0.688
    *p          18.182   0.598
    *d           0.000   0.619

  Using partial waves for O as LCAO basis

Reference energy: -22878.750211

Spin-paired calculation

Occupation numbers:
  Fermi-Dirac: width=0.1000 eV

Convergence criteria:
  Maximum total energy change: 0.0005 eV / electron
  Maximum integral of absolute density change: 0.0001 electrons
  Maximum integral of absolute eigenstate change: 4e-08 eV^2
  Maximum number of iterations: 333

Symmetries present (total): 6

  ( 1  0  0)  ( 1 -1  0)  ( 0  1  0)  ( 0 -1  0)  (-1  1  0)  (-1  0  0)
  ( 0  1  0)  ( 0 -1  0)  ( 1  0  0)  ( 1 -1  0)  (-1  0  0)  (-1  1  0)
  ( 0  0  1)  ( 0  0  1)  ( 0  0  1)  ( 0  0  1)  ( 0  0  1)  ( 0  0  1)
Note: your k-points are not as symmetric as your crystal!

36 k-points: 6 x 6 x 1 Monkhorst-Pack grid
12 k-points in the irreducible part of the Brillouin zone
       k-points in crystal coordinates                weights
   0:     0.08333333   -0.08333333    0.00000000          2/36
   1:     0.08333333    0.08333333    0.00000000          2/36
   2:     0.25000000   -0.25000000    0.00000000          2/36
   3:     0.25000000   -0.08333333    0.00000000          4/36
   4:     0.25000000    0.08333333    0.00000000          4/36
   5:     0.25000000    0.25000000    0.00000000          2/36
   6:     0.41666667   -0.41666667    0.00000000          2/36
   7:     0.41666667   -0.25000000    0.00000000          4/36
   8:     0.41666667   -0.08333333    0.00000000          4/36
   9:     0.41666667    0.08333333    0.00000000          4/36
          ...
  11:     0.41666667    0.41666667    0.00000000          2/36

Wave functions: Plane wave expansion
  Cutoff energy: 750.000 eV
  Number of coefficients (min, max): 11394, 11539
  Pulay-stress correction: 0.000000 eV/Ang^3 (de/decut=0.000000)
  Using Numpy's FFT
  ScaLapack parameters: grid=1x1, blocksize=None
  Wavefunction extrapolation:
    Improved wavefunction reuse through dual PAW basis 

Eigensolver
   Davidson(niter=2, smin=None, normalize=True) 

Densities:
  Coarse grid: 20*20*224 grid
  Fine grid: 40*40*448 grid
  Total Charge: 0.000000 

Density mixing:
  Method: separate
  Backend: pulay
  Linear mixing parameter: 0.05
  Mixing with 5 old densities
  Damping of long wave oscillations: 50 

Hamiltonian:
  XC and Coulomb potentials evaluated on a 40*40*448 grid
  Using the PBE Exchange-Correlation functional
 

XC parameters: PBE with 2 nearest neighbor stencil

Memory estimate:
  Process memory now: 179.29 MiB
  Calculator: 28.13 MiB
    Density: 8.60 MiB
      Arrays: 3.57 MiB
      Localized functions: 3.65 MiB
      Mixer: 1.37 MiB
    Hamiltonian: 2.43 MiB
      Arrays: 2.33 MiB
      XC: 0.00 MiB
      Poisson: 0.00 MiB
      vbar: 0.10 MiB
    Wavefunctions: 17.10 MiB
      Arrays psit_nG: 8.45 MiB
      Eigensolver: 3.74 MiB
      Projections: 0.01 MiB
      Projectors: 1.27 MiB
      PW-descriptor: 3.63 MiB

Total number of cores used: 20
Parallelization over k-points: 4
Domain decomposition: 1 x 1 x 5

Number of atoms: 5
Number of atomic orbitals: 20
Number of bands in calculation: 16
Bands to converge: occupied states only
Number of valence electrons: 19

... initialized

Initializing position-dependent things.

Density initialized from atomic densities
Creating initial wave functions:
  16 bands from LCAO basis set

                    
                    
                    
                    
       O            
                    
       C            
                    
                    
       Al           
                    
        Al          
                    
                    
           Al       
                    
                    
                    
                    

Positions:
   0 Al     1.430477    0.825886   15.000000    ( 0.0000,  0.0000,  0.0000)
   1 Al     0.000000    1.651773   17.335959    ( 0.0000,  0.0000,  0.0000)
   2 Al     0.000000    0.000000   19.671918    ( 0.0000,  0.0000,  0.0000)
   3 C      0.000000    0.000000   21.471918    ( 0.0000,  0.0000,  0.0000)
   4 O      0.000000    0.000000   22.901918    ( 0.0000,  0.0000,  0.0000)

Unit cell:
           periodic     x           y           z      points  spacing
  1. axis:    yes    2.860954    0.000000    0.000000    20     0.1239
  2. axis:    yes    1.430477    2.477659    0.000000    20     0.1239
  3. axis:    no     0.000000    0.000000   34.671918   224     0.1548

  Lengths:   2.860954   2.860954  34.671918
  Angles:   90.000000  90.000000  60.000000

Effective grid spacing dv^(1/3) = 0.1400

                     log10-error:    total        iterations:
           time      wfs    density  energy       fermi  poisson
iter:   1  11:55:34  +0.88   +inf   -27.646905    2             
iter:   2  11:55:35  -0.27  -0.58   -32.650090    32            
iter:   3  11:55:35  -2.00  -0.54   -23.846247    32            
iter:   4  11:55:36  -2.78  -0.93   -23.720921    4             
iter:   5  11:55:37  -1.19  -0.96   -24.054359    4             
iter:   6  11:55:38  -1.37  -0.99   -23.426779    28            
iter:   7  11:55:39  -2.28  -1.29   -23.410806    4             
iter:   8  11:55:39  -2.75  -1.43   -23.359558    5             
iter:   9  11:55:40  -3.22  -1.61   -23.339594    4             
iter:  10  11:55:41  -4.51  -1.69   -23.342060    3             
iter:  11  11:55:42  -2.79  -1.68   -23.321801    5             
iter:  12  11:55:43  -3.47  -2.00   -23.319898    4             
iter:  13  11:55:44  -4.04  -2.14   -23.318704    3             
iter:  14  11:55:44  -4.14  -2.27   -23.316920    3             
iter:  15  11:55:45  -4.99  -2.66   -23.316819    2             
iter:  16  11:55:46  -5.31  -2.72   -23.316768    2             
iter:  17  11:55:47  -5.38  -2.81   -23.316610    3             
iter:  18  11:55:48  -5.77  -3.05   -23.316589    3             
iter:  19  11:55:48  -6.14  -3.16   -23.316592    3             
iter:  20  11:55:49  -5.97  -3.20   -23.316585    2             
iter:  21  11:55:50  -6.56  -3.36   -23.316587    3             
iter:  22  11:55:51  -7.15  -3.67   -23.316581    2             
iter:  23  11:55:52  -7.08  -3.84   -23.316582    2             
iter:  24  11:55:53  -7.56  -3.94   -23.316581    2             
iter:  25  11:55:53  -7.88  -4.03   -23.316583    2             

Converged after 25 iterations.

Dipole moment: (-0.044539, -0.025715, -0.192735) |e|*Ang

Energy contributions relative to reference atoms: (reference = -22878.750211)

Kinetic:        +14.343827
Potential:      -13.036546
External:        +0.000000
XC:             -24.813562
Entropy (-ST):   -0.075834
Local:           +0.227615
--------------------------
Free energy:    -23.354500
Extrapolated:   -23.316583

Fermi level: -2.80818

Showing only first 2 kpts
 Kpt  Band  Eigenvalues  Occupancy
  0     7     -4.50664    0.11111
  0     8     -3.40922    0.11084
  0     9     -0.34487    0.00000
  0    10      0.39393    0.00000

  1     7     -4.40712    0.11111
  1     8     -3.65702    0.11109
  1     9     -0.02723    0.00000
  1    10      0.39268    0.00000


No gap
Timing:                              incl.     excl.
-----------------------------------------------------------
Hamiltonian:                         0.243     0.008   0.0% |
 Atomic:                             0.000     0.000   0.0% |
  XC Correction:                     0.000     0.000   0.0% |
 Calculate atomic Hamiltonians:      0.008     0.008   0.0% |
 Communicate:                        0.065     0.065   0.3% |
 Initialize Hamiltonian:             0.000     0.000   0.0% |
 Poisson:                            0.000     0.000   0.0% |
 XC 3D grid:                         0.161     0.161   0.7% |
LCAO initialization:                 1.023     0.137   0.6% |
 LCAO eigensolver:                   0.256     0.000   0.0% |
  Calculate projections:             0.000     0.000   0.0% |
  DenseAtomicCorrection:             0.000     0.000   0.0% |
  Distribute overlap matrix:         0.255     0.255   1.1% |
  Orbital Layouts:                   0.001     0.001   0.0% |
  Potential matrix:                  0.000     0.000   0.0% |
  Sum over cells:                    0.000     0.000   0.0% |
 LCAO to grid:                       0.535     0.535   2.4% ||
 Set positions (LCAO WFS):           0.094     0.053   0.2% |
  Basic WFS set positions:           0.001     0.001   0.0% |
  Basis functions set positions:     0.000     0.000   0.0% |
  P tci:                             0.000     0.000   0.0% |
  ST tci:                            0.012     0.012   0.1% |
  mktci:                             0.028     0.028   0.1% |
PWDescriptor:                        0.027     0.027   0.1% |
SCF-cycle:                          20.045     0.078   0.3% |
 Davidson:                           9.742     1.194   5.3% |-|
  Apply H:                           1.992     1.945   8.6% |--|
   HMM T:                            0.047     0.047   0.2% |
  Subspace diag:                     2.198     0.008   0.0% |
   calc_h_matrix:                    2.103     0.049   0.2% |
    Apply H:                         2.054     2.006   8.9% |---|
     HMM T:                          0.048     0.048   0.2% |
   diagonalize:                      0.031     0.031   0.1% |
   rotate_psi:                       0.057     0.057   0.3% |
  calc. matrices:                    4.208     0.308   1.4% ||
   Apply H:                          3.901     3.807  16.9% |------|
    HMM T:                           0.094     0.094   0.4% |
  diagonalize:                       0.067     0.067   0.3% |
  rotate_psi:                        0.082     0.082   0.4% |
 Density:                            4.149     0.001   0.0% |
  Atomic density matrices:           0.027     0.027   0.1% |
  Mix:                               1.858     1.858   8.2% |--|
  Multipole moments:                 0.004     0.004   0.0% |
  Pseudo density:                    2.260     1.327   5.9% |-|
   Symmetrize density:               0.933     0.933   4.1% |-|
 Hamiltonian:                        6.065     0.247   1.1% |
  Atomic:                            0.006     0.006   0.0% |
   XC Correction:                    0.000     0.000   0.0% |
  Calculate atomic Hamiltonians:     0.426     0.426   1.9% ||
  Communicate:                       1.555     1.555   6.9% |--|
  Poisson:                           0.011     0.011   0.0% |
  XC 3D grid:                        3.820     3.820  16.9% |------|
 Orthonormalize:                     0.011     0.000   0.0% |
  calc_s_matrix:                     0.001     0.001   0.0% |
  inverse-cholesky:                  0.001     0.001   0.0% |
  projections:                       0.007     0.007   0.0% |
  rotate_psi_s:                      0.001     0.001   0.0% |
Set symmetry:                        0.004     0.004   0.0% |
Other:                               1.203     1.203   5.3% |-|
-----------------------------------------------------------
Total:                                        22.544 100.0%

Memory usage: 186.15 MiB
Date: Mon Dec  9 11:55:53 2019
