
  ___ ___ ___ _ _ _  
 |   |   |_  | | | | 
 | | | | | . | | | | 
 |__ |  _|___|_____|  19.8.1
 |___|_|             

User:   fadjar@cn0015
Date:   Mon Dec  9 11:53:01 2019
Arch:   x86_64
Pid:    18015
Python: 3.7.3
gpaw:   /app/anaconda3/lib/python3.7/site-packages/gpaw
_gpaw:  /app/anaconda3/bin/gpaw-python
ase:    /app/anaconda3/lib/python3.7/site-packages/ase-3.18.0-py3.7.egg/ase (version 3.18.0)
numpy:  /app/anaconda3/lib/python3.7/site-packages/numpy (version 1.16.4)
scipy:  /app/anaconda3/lib/python3.7/site-packages/scipy (version 1.3.0)
libxc:  4.3.4
units:  Angstrom and eV
cores:  20

Input parameters:
  kpts: [6 6 1]
  mode: {ecut: 750.0,
         gammacentered: False,
         name: pw}
  xc: PBE

System changes: positions, numbers, cell, pbc, initial_charges, initial_magmoms 

Initialize ...

Al-setup:
  name: Aluminium
  id: 0292cae29f5d6237e50f6abdd43a7bdd
  Z: 13
  valence: 3
  core: 10
  charge: 0.0
  file: /app/gpaw-setups-0.9.20000/Al.PBE.gz
  compensation charges: gauss, rc=0.34, lmax=2
  cutoffs: 1.91(filt), 2.36(core),
  valence states:
                energy  radius
    3s(2.00)    -7.753   1.085
    3p(1.00)    -2.712   1.085
    *s          19.459   1.085
    *p          24.499   1.085
    *d           0.000   1.085

  Using partial waves for Al as LCAO basis

C-setup:
  name: Carbon
  id: 4aa54d4b901d75f77cc0ea3eec22967b
  Z: 6
  valence: 4
  core: 2
  charge: 0.0
  file: /app/gpaw-setups-0.9.20000/C.PBE.gz
  compensation charges: gauss, rc=0.20, lmax=2
  cutoffs: 1.14(filt), 1.14(core),
  valence states:
                energy  radius
    2s(2.00)   -13.751   0.635
    2p(2.00)    -5.284   0.635
    *s          13.461   0.635
    *p          21.927   0.635
    *d           0.000   0.635

  Using partial waves for C as LCAO basis

O-setup:
  name: Oxygen
  id: 32ecd46bf208036f09c70b0ec9a88b78
  Z: 8
  valence: 6
  core: 2
  charge: 0.0
  file: /app/gpaw-setups-0.9.20000/O.PBE.gz
  compensation charges: gauss, rc=0.21, lmax=2
  cutoffs: 1.17(filt), 0.83(core),
  valence states:
                energy  radius
    2s(2.00)   -23.961   0.688
    2p(4.00)    -9.029   0.598
    *s           3.251   0.688
    *p          18.182   0.598
    *d           0.000   0.619

  Using partial waves for O as LCAO basis

Reference energy: -22878.750211

Spin-paired calculation

Occupation numbers:
  Fermi-Dirac: width=0.1000 eV

Convergence criteria:
  Maximum total energy change: 0.0005 eV / electron
  Maximum integral of absolute density change: 0.0001 electrons
  Maximum integral of absolute eigenstate change: 4e-08 eV^2
  Maximum number of iterations: 333

Symmetries present (total): 6

  ( 1  0  0)  ( 1 -1  0)  ( 0  1  0)  ( 0 -1  0)  (-1  1  0)  (-1  0  0)
  ( 0  1  0)  ( 0 -1  0)  ( 1  0  0)  ( 1 -1  0)  (-1  0  0)  (-1  1  0)
  ( 0  0  1)  ( 0  0  1)  ( 0  0  1)  ( 0  0  1)  ( 0  0  1)  ( 0  0  1)
Note: your k-points are not as symmetric as your crystal!

36 k-points: 6 x 6 x 1 Monkhorst-Pack grid
12 k-points in the irreducible part of the Brillouin zone
       k-points in crystal coordinates                weights
   0:     0.08333333   -0.08333333    0.00000000          2/36
   1:     0.08333333    0.08333333    0.00000000          2/36
   2:     0.25000000   -0.25000000    0.00000000          2/36
   3:     0.25000000   -0.08333333    0.00000000          4/36
   4:     0.25000000    0.08333333    0.00000000          4/36
   5:     0.25000000    0.25000000    0.00000000          2/36
   6:     0.41666667   -0.41666667    0.00000000          2/36
   7:     0.41666667   -0.25000000    0.00000000          4/36
   8:     0.41666667   -0.08333333    0.00000000          4/36
   9:     0.41666667    0.08333333    0.00000000          4/36
          ...
  11:     0.41666667    0.41666667    0.00000000          2/36

Wave functions: Plane wave expansion
  Cutoff energy: 750.000 eV
  Number of coefficients (min, max): 4821, 4889
  Pulay-stress correction: 0.000000 eV/Ang^3 (de/decut=0.000000)
  Using Numpy's FFT
  ScaLapack parameters: grid=1x1, blocksize=None
  Wavefunction extrapolation:
    Improved wavefunction reuse through dual PAW basis 

Eigensolver
   Davidson(niter=2, smin=None, normalize=True) 

Densities:
  Coarse grid: 20*20*96 grid
  Fine grid: 40*40*192 grid
  Total Charge: 0.000000 

Density mixing:
  Method: separate
  Backend: pulay
  Linear mixing parameter: 0.05
  Mixing with 5 old densities
  Damping of long wave oscillations: 50 

Hamiltonian:
  XC and Coulomb potentials evaluated on a 40*40*192 grid
  Using the PBE Exchange-Correlation functional
 

XC parameters: PBE with 2 nearest neighbor stencil

Memory estimate:
  Process memory now: 83.78 MiB
  Calculator: 12.05 MiB
    Density: 3.71 MiB
      Arrays: 1.55 MiB
      Localized functions: 1.55 MiB
      Mixer: 0.61 MiB
    Hamiltonian: 1.05 MiB
      Arrays: 1.01 MiB
      XC: 0.00 MiB
      Poisson: 0.00 MiB
      vbar: 0.04 MiB
    Wavefunctions: 7.29 MiB
      Arrays psit_nG: 3.58 MiB
      Eigensolver: 1.61 MiB
      Projections: 0.01 MiB
      Projectors: 0.54 MiB
      PW-descriptor: 1.55 MiB

Total number of cores used: 20
Parallelization over k-points: 4
Domain decomposition: 1 x 1 x 5

Number of atoms: 5
Number of atomic orbitals: 20
Number of bands in calculation: 16
Bands to converge: occupied states only
Number of valence electrons: 19

... initialized

Initializing position-dependent things.

Density initialized from atomic densities
Creating initial wave functions:
  16 bands from LCAO basis set

                    
                    
                    
                    
       O            
                    
       C            
                    
                    
       Al           
                    
        Al          
                    
                    
           Al       
                    
                    
                    
                    

Positions:
   0 Al     1.430477    0.825886    5.000000    ( 0.0000,  0.0000,  0.0000)
   1 Al     0.000000    1.651773    7.335959    ( 0.0000,  0.0000,  0.0000)
   2 Al     0.000000    0.000000    9.671918    ( 0.0000,  0.0000,  0.0000)
   3 C      0.000000    0.000000   11.471918    ( 0.0000,  0.0000,  0.0000)
   4 O      0.000000    0.000000   12.901918    ( 0.0000,  0.0000,  0.0000)

Unit cell:
           periodic     x           y           z      points  spacing
  1. axis:    yes    2.860954    0.000000    0.000000    20     0.1239
  2. axis:    yes    1.430477    2.477659    0.000000    20     0.1239
  3. axis:    no     0.000000    0.000000   14.671918    96     0.1528

  Lengths:   2.860954   2.860954  14.671918
  Angles:   90.000000  90.000000  60.000000

Effective grid spacing dv^(1/3) = 0.1394

                     log10-error:    total        iterations:
           time      wfs    density  energy       fermi  poisson
iter:   1  11:53:04  +0.83   +inf   -24.384134    4             
iter:   2  11:53:04  -1.47  -0.87   -23.687443    4             
iter:   3  11:53:05  -2.35  -0.97   -23.598749    4             
iter:   4  11:53:05  -1.76  -1.00   -23.489333    31            
iter:   5  11:53:05  -2.22  -1.24   -23.397957    3             
iter:   6  11:53:06  -2.56  -1.45   -23.373747    4             
iter:   7  11:53:06  -3.19  -1.65   -23.375082    3             
iter:   8  11:53:06  -3.61  -1.75   -23.364997    3             
iter:   9  11:53:07  -3.65  -1.94   -23.362715    4             
iter:  10  11:53:07  -4.02  -2.13   -23.362569    3             
iter:  11  11:53:07  -4.25  -2.18   -23.361597    3             
iter:  12  11:53:08  -4.02  -2.27   -23.360024    3             
iter:  13  11:53:08  -4.98  -2.71   -23.359947    2             
iter:  14  11:53:08  -5.55  -2.78   -23.359880    2             
iter:  15  11:53:09  -5.54  -2.89   -23.359784    3             
iter:  16  11:53:09  -6.08  -3.14   -23.359766    3             
iter:  17  11:53:09  -6.37  -3.25   -23.359761    3             
iter:  18  11:53:10  -6.88  -3.31   -23.359762    2             
iter:  19  11:53:10  -6.78  -3.32   -23.359762    2             
iter:  20  11:53:10  -6.58  -3.39   -23.359759    2             
iter:  21  11:53:11  -6.85  -3.64   -23.359757    2             
iter:  22  11:53:11  -8.01  -3.72   -23.359757    2             
iter:  23  11:53:11  -6.98  -3.75   -23.359757    2             
iter:  24  11:53:12  -7.89  -4.04   -23.359759    2             

Converged after 24 iterations.

Dipole moment: (-0.047154, -0.027224, -0.372653) |e|*Ang

Energy contributions relative to reference atoms: (reference = -22878.750211)

Kinetic:        +14.362624
Potential:      -12.989953
External:        +0.000000
XC:             -24.921816
Entropy (-ST):   -0.076671
Local:           +0.227723
--------------------------
Free energy:    -23.398094
Extrapolated:   -23.359759

Fermi level: 1.86748

Showing only first 2 kpts
 Kpt  Band  Eigenvalues  Occupancy
  0     7      0.12779    0.11111
  0     8      1.30191    0.11072
  0     9      4.32956    0.00000
  0    10      5.08909    0.00000

  1     7      0.22744    0.11111
  1     8      1.05468    0.11108
  1     9      4.81244    0.00000
  1    10      5.10270    0.00000


No gap
Timing:                              incl.     excl.
-----------------------------------------------------------
Hamiltonian:                         0.142     0.004   0.0% |
 Atomic:                             0.000     0.000   0.0% |
  XC Correction:                     0.000     0.000   0.0% |
 Calculate atomic Hamiltonians:      0.005     0.005   0.0% |
 Communicate:                        0.065     0.065   0.6% |
 Initialize Hamiltonian:             0.000     0.000   0.0% |
 Poisson:                            0.000     0.000   0.0% |
 XC 3D grid:                         0.068     0.068   0.6% |
LCAO initialization:                 0.675     0.137   1.3% ||
 LCAO eigensolver:                   0.167     0.000   0.0% |
  Calculate projections:             0.000     0.000   0.0% |
  DenseAtomicCorrection:             0.000     0.000   0.0% |
  Distribute overlap matrix:         0.145     0.145   1.4% ||
  Orbital Layouts:                   0.001     0.001   0.0% |
  Potential matrix:                  0.018     0.018   0.2% |
  Sum over cells:                    0.003     0.003   0.0% |
 LCAO to grid:                       0.302     0.302   2.9% ||
 Set positions (LCAO WFS):           0.069     0.024   0.2% |
  Basic WFS set positions:           0.001     0.001   0.0% |
  Basis functions set positions:     0.000     0.000   0.0% |
  P tci:                             0.001     0.001   0.0% |
  ST tci:                            0.015     0.015   0.1% |
  mktci:                             0.028     0.028   0.3% |
PWDescriptor:                        0.010     0.010   0.1% |
SCF-cycle:                           7.997     0.062   0.6% |
 Davidson:                           3.084     0.444   4.2% |-|
  Apply H:                           0.576     0.564   5.4% |-|
   HMM T:                            0.012     0.012   0.1% |
  Subspace diag:                     0.660     0.006   0.1% |
   calc_h_matrix:                    0.606     0.023   0.2% |
    Apply H:                         0.583     0.570   5.4% |-|
     HMM T:                          0.013     0.013   0.1% |
   diagonalize:                      0.024     0.024   0.2% |
   rotate_psi:                       0.024     0.024   0.2% |
  calc. matrices:                    1.308     0.160   1.5% ||
   Apply H:                          1.148     1.120  10.7% |---|
    HMM T:                           0.028     0.028   0.3% |
  diagonalize:                       0.061     0.061   0.6% |
  rotate_psi:                        0.035     0.035   0.3% |
 Density:                            1.503     0.000   0.0% |
  Atomic density matrices:           0.023     0.023   0.2% |
  Mix:                               0.713     0.713   6.8% |--|
  Multipole moments:                 0.003     0.003   0.0% |
  Pseudo density:                    0.764     0.377   3.6% ||
   Symmetrize density:               0.387     0.387   3.7% ||
 Hamiltonian:                        3.341     0.089   0.9% |
  Atomic:                            0.006     0.005   0.1% |
   XC Correction:                    0.000     0.000   0.0% |
  Calculate atomic Hamiltonians:     0.174     0.174   1.7% ||
  Communicate:                       1.490     1.490  14.3% |-----|
  Poisson:                           0.006     0.006   0.1% |
  XC 3D grid:                        1.576     1.576  15.1% |-----|
 Orthonormalize:                     0.006     0.000   0.0% |
  calc_s_matrix:                     0.001     0.001   0.0% |
  inverse-cholesky:                  0.002     0.002   0.0% |
  projections:                       0.003     0.003   0.0% |
  rotate_psi_s:                      0.000     0.000   0.0% |
Set symmetry:                        0.004     0.004   0.0% |
Other:                               1.629     1.629  15.6% |-----|
-----------------------------------------------------------
Total:                                        10.457 100.0%

Memory usage: 114.46 MiB
Date: Mon Dec  9 11:53:12 2019
