
  ___ ___ ___ _ _ _  
 |   |   |_  | | | | 
 | | | | | . | | | | 
 |__ |  _|___|_____|  19.8.1
 |___|_|             

User:   fadjar@cn0015
Date:   Mon Dec  9 11:53:21 2019
Arch:   x86_64
Pid:    18015
Python: 3.7.3
gpaw:   /app/anaconda3/lib/python3.7/site-packages/gpaw
_gpaw:  /app/anaconda3/bin/gpaw-python
ase:    /app/anaconda3/lib/python3.7/site-packages/ase-3.18.0-py3.7.egg/ase (version 3.18.0)
numpy:  /app/anaconda3/lib/python3.7/site-packages/numpy (version 1.16.4)
scipy:  /app/anaconda3/lib/python3.7/site-packages/scipy (version 1.3.0)
libxc:  4.3.4
units:  Angstrom and eV
cores:  20

Input parameters:
  kpts: [6 6 1]
  mode: {ecut: 750.0,
         gammacentered: False,
         name: pw}
  xc: PBE

System changes: positions, numbers, cell, pbc, initial_charges, initial_magmoms 

Initialize ...

Al-setup:
  name: Aluminium
  id: 0292cae29f5d6237e50f6abdd43a7bdd
  Z: 13
  valence: 3
  core: 10
  charge: 0.0
  file: /app/gpaw-setups-0.9.20000/Al.PBE.gz
  compensation charges: gauss, rc=0.34, lmax=2
  cutoffs: 1.91(filt), 2.36(core),
  valence states:
                energy  radius
    3s(2.00)    -7.753   1.085
    3p(1.00)    -2.712   1.085
    *s          19.459   1.085
    *p          24.499   1.085
    *d           0.000   1.085

  Using partial waves for Al as LCAO basis

C-setup:
  name: Carbon
  id: 4aa54d4b901d75f77cc0ea3eec22967b
  Z: 6
  valence: 4
  core: 2
  charge: 0.0
  file: /app/gpaw-setups-0.9.20000/C.PBE.gz
  compensation charges: gauss, rc=0.20, lmax=2
  cutoffs: 1.14(filt), 1.14(core),
  valence states:
                energy  radius
    2s(2.00)   -13.751   0.635
    2p(2.00)    -5.284   0.635
    *s          13.461   0.635
    *p          21.927   0.635
    *d           0.000   0.635

  Using partial waves for C as LCAO basis

O-setup:
  name: Oxygen
  id: 32ecd46bf208036f09c70b0ec9a88b78
  Z: 8
  valence: 6
  core: 2
  charge: 0.0
  file: /app/gpaw-setups-0.9.20000/O.PBE.gz
  compensation charges: gauss, rc=0.21, lmax=2
  cutoffs: 1.17(filt), 0.83(core),
  valence states:
                energy  radius
    2s(2.00)   -23.961   0.688
    2p(4.00)    -9.029   0.598
    *s           3.251   0.688
    *p          18.182   0.598
    *d           0.000   0.619

  Using partial waves for O as LCAO basis

Reference energy: -22878.750211

Spin-paired calculation

Occupation numbers:
  Fermi-Dirac: width=0.1000 eV

Convergence criteria:
  Maximum total energy change: 0.0005 eV / electron
  Maximum integral of absolute density change: 0.0001 electrons
  Maximum integral of absolute eigenstate change: 4e-08 eV^2
  Maximum number of iterations: 333

Symmetries present (total): 6

  ( 1  0  0)  ( 1 -1  0)  ( 0  1  0)  ( 0 -1  0)  (-1  1  0)  (-1  0  0)
  ( 0  1  0)  ( 0 -1  0)  ( 1  0  0)  ( 1 -1  0)  (-1  0  0)  (-1  1  0)
  ( 0  0  1)  ( 0  0  1)  ( 0  0  1)  ( 0  0  1)  ( 0  0  1)  ( 0  0  1)
Note: your k-points are not as symmetric as your crystal!

36 k-points: 6 x 6 x 1 Monkhorst-Pack grid
12 k-points in the irreducible part of the Brillouin zone
       k-points in crystal coordinates                weights
   0:     0.08333333   -0.08333333    0.00000000          2/36
   1:     0.08333333    0.08333333    0.00000000          2/36
   2:     0.25000000   -0.25000000    0.00000000          2/36
   3:     0.25000000   -0.08333333    0.00000000          4/36
   4:     0.25000000    0.08333333    0.00000000          4/36
   5:     0.25000000    0.25000000    0.00000000          2/36
   6:     0.41666667   -0.41666667    0.00000000          2/36
   7:     0.41666667   -0.25000000    0.00000000          4/36
   8:     0.41666667   -0.08333333    0.00000000          4/36
   9:     0.41666667    0.08333333    0.00000000          4/36
          ...
  11:     0.41666667    0.41666667    0.00000000          2/36

Wave functions: Plane wave expansion
  Cutoff energy: 750.000 eV
  Number of coefficients (min, max): 6121, 6215
  Pulay-stress correction: 0.000000 eV/Ang^3 (de/decut=0.000000)
  Using Numpy's FFT
  ScaLapack parameters: grid=1x1, blocksize=None
  Wavefunction extrapolation:
    Improved wavefunction reuse through dual PAW basis 

Eigensolver
   Davidson(niter=2, smin=None, normalize=True) 

Densities:
  Coarse grid: 20*20*120 grid
  Fine grid: 40*40*240 grid
  Total Charge: 0.000000 

Density mixing:
  Method: separate
  Backend: pulay
  Linear mixing parameter: 0.05
  Mixing with 5 old densities
  Damping of long wave oscillations: 50 

Hamiltonian:
  XC and Coulomb potentials evaluated on a 40*40*240 grid
  Using the PBE Exchange-Correlation functional
 

XC parameters: PBE with 2 nearest neighbor stencil

Memory estimate:
  Process memory now: 131.66 MiB
  Calculator: 15.12 MiB
    Density: 4.61 MiB
      Arrays: 1.90 MiB
      Localized functions: 1.97 MiB
      Mixer: 0.73 MiB
    Hamiltonian: 1.30 MiB
      Arrays: 1.25 MiB
      XC: 0.00 MiB
      Poisson: 0.00 MiB
      vbar: 0.05 MiB
    Wavefunctions: 9.22 MiB
      Arrays psit_nG: 4.55 MiB
      Eigensolver: 2.03 MiB
      Projections: 0.01 MiB
      Projectors: 0.68 MiB
      PW-descriptor: 1.94 MiB

Total number of cores used: 20
Parallelization over k-points: 4
Domain decomposition: 1 x 1 x 5

Number of atoms: 5
Number of atomic orbitals: 20
Number of bands in calculation: 16
Bands to converge: occupied states only
Number of valence electrons: 19

... initialized

Initializing position-dependent things.

Density initialized from atomic densities
Creating initial wave functions:
  16 bands from LCAO basis set

                    
                    
                    
                    
       O            
                    
       C            
                    
                    
       Al           
                    
        Al          
                    
                    
           Al       
                    
                    
                    
                    

Positions:
   0 Al     1.430477    0.825886    7.000000    ( 0.0000,  0.0000,  0.0000)
   1 Al     0.000000    1.651773    9.335959    ( 0.0000,  0.0000,  0.0000)
   2 Al     0.000000    0.000000   11.671918    ( 0.0000,  0.0000,  0.0000)
   3 C      0.000000    0.000000   13.471918    ( 0.0000,  0.0000,  0.0000)
   4 O      0.000000    0.000000   14.901918    ( 0.0000,  0.0000,  0.0000)

Unit cell:
           periodic     x           y           z      points  spacing
  1. axis:    yes    2.860954    0.000000    0.000000    20     0.1239
  2. axis:    yes    1.430477    2.477659    0.000000    20     0.1239
  3. axis:    no     0.000000    0.000000   18.671918   120     0.1556

  Lengths:   2.860954   2.860954  18.671918
  Angles:   90.000000  90.000000  60.000000

Effective grid spacing dv^(1/3) = 0.1402

                     log10-error:    total        iterations:
           time      wfs    density  energy       fermi  poisson
iter:   1  11:53:23  +0.84   +inf   -25.045238    4             
iter:   2  11:53:24  -1.41  -0.81   -23.813632    4             
iter:   3  11:53:24  -2.36  -0.96   -23.590843    4             
iter:   4  11:53:25  -1.71  -0.99   -23.497599    32            
iter:   5  11:53:25  -2.26  -1.21   -23.504315    4             
iter:   6  11:53:26  -1.90  -1.26   -23.358544    3             
iter:   7  11:53:26  -3.22  -1.65   -23.355575    3             
iter:   8  11:53:26  -2.90  -1.72   -23.342630    4             
iter:   9  11:53:27  -3.35  -1.91   -23.338545    4             
iter:  10  11:53:27  -4.09  -2.07   -23.337920    3             
iter:  11  11:53:28  -3.73  -2.11   -23.335211    3             
iter:  12  11:53:28  -4.03  -2.38   -23.334796    2             
iter:  13  11:53:28  -5.29  -2.67   -23.334667    3             
iter:  14  11:53:29  -5.00  -2.75   -23.334498    3             
iter:  15  11:53:29  -5.41  -2.95   -23.334453    2             
iter:  16  11:53:30  -5.92  -3.31   -23.334443    2             
iter:  17  11:53:30  -6.67  -3.34   -23.334441    2             
iter:  18  11:53:30  -6.41  -3.42   -23.334445    2             
iter:  19  11:53:31  -6.91  -3.71   -23.334447    2             
iter:  20  11:53:31  -7.07  -3.87   -23.334446    2             
iter:  21  11:53:32  -7.93  -4.01   -23.334446    2             

Converged after 21 iterations.

Dipole moment: (-0.045625, -0.026341, -0.295990) |e|*Ang

Energy contributions relative to reference atoms: (reference = -22878.750211)

Kinetic:        +14.366779
Potential:      -13.027806
External:        +0.000000
XC:             -24.864206
Entropy (-ST):   -0.076272
Local:           +0.228923
--------------------------
Free energy:    -23.372583
Extrapolated:   -23.334446

Fermi level: 0.13501

Showing only first 2 kpts
 Kpt  Band  Eigenvalues  Occupancy
  0     7     -1.58116    0.11111
  0     8     -0.44942    0.11079
  0     9      2.59774    0.00000
  0    10      3.36981    0.00000

  1     7     -1.48161    0.11111
  1     8     -0.69675    0.11108
  1     9      2.99069    0.00000
  1    10      3.34300    0.00000


No gap
Timing:                              incl.     excl.
-----------------------------------------------------------
Hamiltonian:                         0.171     0.004   0.0% |
 Atomic:                             0.000     0.000   0.0% |
  XC Correction:                     0.000     0.000   0.0% |
 Calculate atomic Hamiltonians:      0.005     0.005   0.1% |
 Communicate:                        0.075     0.075   0.7% |
 Initialize Hamiltonian:             0.000     0.000   0.0% |
 Poisson:                            0.000     0.000   0.0% |
 XC 3D grid:                         0.086     0.086   0.8% |
LCAO initialization:                 0.735     0.138   1.3% ||
 LCAO eigensolver:                   0.187     0.000   0.0% |
  Calculate projections:             0.000     0.000   0.0% |
  DenseAtomicCorrection:             0.000     0.000   0.0% |
  Distribute overlap matrix:         0.184     0.184   1.8% ||
  Orbital Layouts:                   0.001     0.001   0.0% |
  Potential matrix:                  0.001     0.001   0.0% |
  Sum over cells:                    0.002     0.002   0.0% |
 LCAO to grid:                       0.334     0.334   3.2% ||
 Set positions (LCAO WFS):           0.076     0.034   0.3% |
  Basic WFS set positions:           0.001     0.001   0.0% |
  Basis functions set positions:     0.000     0.000   0.0% |
  P tci:                             0.000     0.000   0.0% |
  ST tci:                            0.012     0.012   0.1% |
  mktci:                             0.028     0.028   0.3% |
PWDescriptor:                        0.012     0.012   0.1% |
SCF-cycle:                           8.398     0.064   0.6% |
 Davidson:                           3.381     0.485   4.7% |-|
  Apply H:                           0.638     0.622   6.0% |-|
   HMM T:                            0.017     0.017   0.2% |
  Subspace diag:                     0.730     0.005   0.1% |
   calc_h_matrix:                    0.676     0.028   0.3% |
    Apply H:                         0.649     0.630   6.1% |-|
     HMM T:                          0.019     0.019   0.2% |
   diagonalize:                      0.023     0.023   0.2% |
   rotate_psi:                       0.026     0.026   0.2% |
  calc. matrices:                    1.434     0.168   1.6% ||
   Apply H:                          1.267     1.228  11.9% |----|
    HMM T:                           0.038     0.038   0.4% |
  diagonalize:                       0.055     0.055   0.5% |
  rotate_psi:                        0.039     0.039   0.4% |
 Density:                            1.648     0.000   0.0% |
  Atomic density matrices:           0.022     0.022   0.2% |
  Mix:                               0.778     0.778   7.5% |--|
  Multipole moments:                 0.003     0.003   0.0% |
  Pseudo density:                    0.845     0.425   4.1% |-|
   Symmetrize density:               0.419     0.419   4.0% |-|
 Hamiltonian:                        3.299     0.095   0.9% |
  Atomic:                            0.005     0.005   0.0% |
   XC Correction:                    0.000     0.000   0.0% |
  Calculate atomic Hamiltonians:     0.185     0.185   1.8% ||
  Communicate:                       1.298     1.298  12.5% |----|
  Poisson:                           0.007     0.007   0.1% |
  XC 3D grid:                        1.709     1.709  16.5% |------|
 Orthonormalize:                     0.006     0.000   0.0% |
  calc_s_matrix:                     0.001     0.001   0.0% |
  inverse-cholesky:                  0.001     0.001   0.0% |
  projections:                       0.003     0.003   0.0% |
  rotate_psi_s:                      0.001     0.001   0.0% |
Set symmetry:                        0.005     0.005   0.0% |
Other:                               1.034     1.034  10.0% |---|
-----------------------------------------------------------
Total:                                        10.355 100.0%

Memory usage: 136.34 MiB
Date: Mon Dec  9 11:53:32 2019
