
  ___ ___ ___ _ _ _  
 |   |   |_  | | | | 
 | | | | | . | | | | 
 |__ |  _|___|_____|  19.8.1
 |___|_|             

User:   fadjar@cn0015
Date:   Mon Dec  9 11:59:27 2019
Arch:   x86_64
Pid:    18739
Python: 3.7.3
gpaw:   /app/anaconda3/lib/python3.7/site-packages/gpaw
_gpaw:  /app/anaconda3/bin/gpaw-python
ase:    /app/anaconda3/lib/python3.7/site-packages/ase-3.18.0-py3.7.egg/ase (version 3.18.0)
numpy:  /app/anaconda3/lib/python3.7/site-packages/numpy (version 1.16.4)
scipy:  /app/anaconda3/lib/python3.7/site-packages/scipy (version 1.3.0)
libxc:  4.3.4
units:  Angstrom and eV
cores:  20

Input parameters:
  kpts: [6 6 1]
  mode: {ecut: 750.0,
         gammacentered: False,
         name: pw}
  xc: PBE

System changes: positions, numbers, cell, pbc, initial_charges, initial_magmoms 

Initialize ...

Al-setup:
  name: Aluminium
  id: 0292cae29f5d6237e50f6abdd43a7bdd
  Z: 13
  valence: 3
  core: 10
  charge: 0.0
  file: /app/gpaw-setups-0.9.20000/Al.PBE.gz
  compensation charges: gauss, rc=0.34, lmax=2
  cutoffs: 1.91(filt), 2.36(core),
  valence states:
                energy  radius
    3s(2.00)    -7.753   1.085
    3p(1.00)    -2.712   1.085
    *s          19.459   1.085
    *p          24.499   1.085
    *d           0.000   1.085

  Using partial waves for Al as LCAO basis

C-setup:
  name: Carbon
  id: 4aa54d4b901d75f77cc0ea3eec22967b
  Z: 6
  valence: 4
  core: 2
  charge: 0.0
  file: /app/gpaw-setups-0.9.20000/C.PBE.gz
  compensation charges: gauss, rc=0.20, lmax=2
  cutoffs: 1.14(filt), 1.14(core),
  valence states:
                energy  radius
    2s(2.00)   -13.751   0.635
    2p(2.00)    -5.284   0.635
    *s          13.461   0.635
    *p          21.927   0.635
    *d           0.000   0.635

  Using partial waves for C as LCAO basis

O-setup:
  name: Oxygen
  id: 32ecd46bf208036f09c70b0ec9a88b78
  Z: 8
  valence: 6
  core: 2
  charge: 0.0
  file: /app/gpaw-setups-0.9.20000/O.PBE.gz
  compensation charges: gauss, rc=0.21, lmax=2
  cutoffs: 1.17(filt), 0.83(core),
  valence states:
                energy  radius
    2s(2.00)   -23.961   0.688
    2p(4.00)    -9.029   0.598
    *s           3.251   0.688
    *p          18.182   0.598
    *d           0.000   0.619

  Using partial waves for O as LCAO basis

Reference energy: -22878.750211

Spin-paired calculation

Occupation numbers:
  Fermi-Dirac: width=0.1000 eV

Convergence criteria:
  Maximum total energy change: 0.0005 eV / electron
  Maximum integral of absolute density change: 0.0001 electrons
  Maximum integral of absolute eigenstate change: 4e-08 eV^2
  Maximum number of iterations: 333

Symmetries present (total): 6

  ( 1  0  0)  ( 1 -1  0)  ( 0  1  0)  ( 0 -1  0)  (-1  1  0)  (-1  0  0)
  ( 0  1  0)  ( 0 -1  0)  ( 1  0  0)  ( 1 -1  0)  (-1  0  0)  (-1  1  0)
  ( 0  0  1)  ( 0  0  1)  ( 0  0  1)  ( 0  0  1)  ( 0  0  1)  ( 0  0  1)
Note: your k-points are not as symmetric as your crystal!

36 k-points: 6 x 6 x 1 Monkhorst-Pack grid
12 k-points in the irreducible part of the Brillouin zone
       k-points in crystal coordinates                weights
   0:     0.08333333   -0.08333333    0.00000000          2/36
   1:     0.08333333    0.08333333    0.00000000          2/36
   2:     0.25000000   -0.25000000    0.00000000          2/36
   3:     0.25000000   -0.08333333    0.00000000          4/36
   4:     0.25000000    0.08333333    0.00000000          4/36
   5:     0.25000000    0.25000000    0.00000000          2/36
   6:     0.41666667   -0.41666667    0.00000000          2/36
   7:     0.41666667   -0.25000000    0.00000000          4/36
   8:     0.41666667   -0.08333333    0.00000000          4/36
   9:     0.41666667    0.08333333    0.00000000          4/36
          ...
  11:     0.41666667    0.41666667    0.00000000          2/36

Wave functions: Plane wave expansion
  Cutoff energy: 750.000 eV
  Number of coefficients (min, max): 13372, 13521
  Pulay-stress correction: 0.000000 eV/Ang^3 (de/decut=0.000000)
  Using Numpy's FFT
  ScaLapack parameters: grid=1x1, blocksize=None
  Wavefunction extrapolation:
    Improved wavefunction reuse through dual PAW basis 

Eigensolver
   Davidson(niter=2, smin=None, normalize=True) 

Densities:
  Coarse grid: 20*20*270 grid
  Fine grid: 40*40*540 grid
  Total Charge: 0.000000 

Density mixing:
  Method: separate
  Backend: pulay
  Linear mixing parameter: 0.05
  Mixing with 5 old densities
  Damping of long wave oscillations: 50 

Hamiltonian:
  XC and Coulomb potentials evaluated on a 40*40*540 grid
  Using the PBE Exchange-Correlation functional
 

XC parameters: PBE with 2 nearest neighbor stencil

Memory estimate:
  Process memory now: 175.48 MiB
  Calculator: 33.28 MiB
    Density: 10.22 MiB
      Arrays: 4.28 MiB
      Localized functions: 4.29 MiB
      Mixer: 1.65 MiB
    Hamiltonian: 2.92 MiB
      Arrays: 2.80 MiB
      XC: 0.00 MiB
      Poisson: 0.00 MiB
      vbar: 0.12 MiB
    Wavefunctions: 20.14 MiB
      Arrays psit_nG: 9.90 MiB
      Eigensolver: 4.37 MiB
      Projections: 0.01 MiB
      Projectors: 1.49 MiB
      PW-descriptor: 4.37 MiB

Total number of cores used: 20
Parallelization over k-points: 4
Domain decomposition: 1 x 1 x 5

Number of atoms: 5
Number of atomic orbitals: 20
Number of bands in calculation: 16
Bands to converge: occupied states only
Number of valence electrons: 19

... initialized

Initializing position-dependent things.

Density initialized from atomic densities
Creating initial wave functions:
  16 bands from LCAO basis set

                    
                    
                    
                    
       O            
                    
       C            
                    
                    
       Al           
                    
        Al          
                    
                    
           Al       
                    
                    
                    
                    

Positions:
   0 Al     1.430477    0.825886   18.000000    ( 0.0000,  0.0000,  0.0000)
   1 Al     0.000000    1.651773   20.335959    ( 0.0000,  0.0000,  0.0000)
   2 Al     0.000000    0.000000   22.671918    ( 0.0000,  0.0000,  0.0000)
   3 C      0.000000    0.000000   24.471918    ( 0.0000,  0.0000,  0.0000)
   4 O      0.000000    0.000000   25.901918    ( 0.0000,  0.0000,  0.0000)

Unit cell:
           periodic     x           y           z      points  spacing
  1. axis:    yes    2.860954    0.000000    0.000000    20     0.1239
  2. axis:    yes    1.430477    2.477659    0.000000    20     0.1239
  3. axis:    no     0.000000    0.000000   40.671918   270     0.1506

  Lengths:   2.860954   2.860954  40.671918
  Angles:   90.000000  90.000000  60.000000

Effective grid spacing dv^(1/3) = 0.1387

                     log10-error:    total        iterations:
           time      wfs    density  energy       fermi  poisson
iter:   1  11:59:30  +0.89   +inf   -28.383237    3             
iter:   2  11:59:31  -0.08  -0.55   -36.837142    31            
iter:   3  11:59:32  -1.77  -0.48   -24.013127    32            
iter:   4  11:59:33  -2.61  -0.92   -23.800780    4             
iter:   5  11:59:34  -1.21  -0.95   -24.101437    5             
iter:   6  11:59:35  -0.87  -0.97   -24.010896    31            
iter:   7  11:59:36  -2.66  -1.07   -23.616507    32            
iter:   8  11:59:37  -2.98  -1.28   -23.468847    4             
iter:   9  11:59:38  -2.16  -1.39   -23.348317    31            
iter:  10  11:59:39  -3.11  -1.63   -23.343818    4             
iter:  11  11:59:40  -2.99  -1.67   -23.321752    4             
iter:  12  11:59:41  -3.76  -2.04   -23.319934    4             
iter:  13  11:59:42  -3.44  -2.08   -23.317037    3             
iter:  14  11:59:43  -4.52  -2.25   -23.315512    2             
iter:  15  11:59:44  -4.68  -2.36   -23.315413    3             
iter:  16  11:59:45  -4.77  -2.44   -23.314818    4             
iter:  17  11:59:46  -5.39  -2.85   -23.314707    3             
iter:  18  11:59:47  -5.89  -3.03   -23.314686    3             
iter:  19  11:59:49  -6.11  -3.10   -23.314670    3             
iter:  20  11:59:50  -5.99  -3.17   -23.314659    3             
iter:  21  11:59:51  -6.22  -3.24   -23.314644    2             
iter:  22  11:59:52  -6.75  -3.33   -23.314643    2             
iter:  23  11:59:53  -6.91  -3.43   -23.314645    3             
iter:  24  11:59:54  -6.79  -3.52   -23.314653    2             
iter:  25  11:59:55  -7.24  -3.77   -23.314652    2             
iter:  26  11:59:56  -7.40  -3.86   -23.314652    2             
iter:  27  11:59:57  -7.93  -3.99   -23.314651    2             
iter:  28  11:59:58  -8.18  -4.09   -23.314651    2             

Converged after 28 iterations.

Dipole moment: (-0.044380, -0.025623, -0.181719) |e|*Ang

Energy contributions relative to reference atoms: (reference = -22878.750211)

Kinetic:        +14.343199
Potential:      -13.047244
External:        +0.000000
XC:             -24.806102
Entropy (-ST):   -0.075786
Local:           +0.233390
--------------------------
Free energy:    -23.352544
Extrapolated:   -23.314651

Fermi level: -3.31567

Showing only first 2 kpts
 Kpt  Band  Eigenvalues  Occupancy
  0     7     -5.01195    0.11111
  0     8     -3.91855    0.11084
  0     9     -0.85250    0.00000
  0    10     -0.12245    0.00000

  1     7     -4.91246    0.11111
  1     8     -4.16640    0.11109
  1     9     -0.54403    0.00000
  1    10     -0.11530    0.00000


No gap
Timing:                              incl.     excl.
-----------------------------------------------------------
Hamiltonian:                         0.305     0.012   0.0% |
 Atomic:                             0.000     0.000   0.0% |
  XC Correction:                     0.000     0.000   0.0% |
 Calculate atomic Hamiltonians:      0.017     0.017   0.1% |
 Communicate:                        0.074     0.074   0.2% |
 Initialize Hamiltonian:             0.000     0.000   0.0% |
 Poisson:                            0.001     0.001   0.0% |
 XC 3D grid:                         0.200     0.200   0.6% |
LCAO initialization:                 1.147     0.136   0.4% |
 LCAO eigensolver:                   0.292     0.000   0.0% |
  Calculate projections:             0.000     0.000   0.0% |
  DenseAtomicCorrection:             0.000     0.000   0.0% |
  Distribute overlap matrix:         0.291     0.291   0.9% |
  Orbital Layouts:                   0.001     0.001   0.0% |
  Potential matrix:                  0.000     0.000   0.0% |
  Sum over cells:                    0.000     0.000   0.0% |
 LCAO to grid:                       0.629     0.629   2.0% ||
 Set positions (LCAO WFS):           0.090     0.049   0.2% |
  Basic WFS set positions:           0.001     0.001   0.0% |
  Basis functions set positions:     0.000     0.000   0.0% |
  P tci:                             0.000     0.000   0.0% |
  ST tci:                            0.012     0.012   0.0% |
  mktci:                             0.027     0.027   0.1% |
PWDescriptor:                        0.035     0.035   0.1% |
SCF-cycle:                          28.504     0.100   0.3% |
 Davidson:                          14.317     1.610   5.1% |-|
  Apply H:                           3.011     2.952   9.4% |---|
   HMM T:                            0.059     0.059   0.2% |
  Subspace diag:                     3.251     0.010   0.0% |
   calc_h_matrix:                    3.108     0.066   0.2% |
    Apply H:                         3.042     2.979   9.5% |---|
     HMM T:                          0.063     0.063   0.2% |
   diagonalize:                      0.036     0.036   0.1% |
   rotate_psi:                       0.098     0.098   0.3% |
  calc. matrices:                    6.194     0.405   1.3% ||
   Apply H:                          5.789     5.668  18.1% |------|
    HMM T:                           0.121     0.121   0.4% |
  diagonalize:                       0.079     0.079   0.3% |
  rotate_psi:                        0.172     0.172   0.5% |
 Density:                            5.933     0.001   0.0% |
  Atomic density matrices:           0.041     0.041   0.1% |
  Mix:                               2.503     2.503   8.0% |--|
  Multipole moments:                 0.004     0.004   0.0% |
  Pseudo density:                    3.385     2.119   6.8% |--|
   Symmetrize density:               1.267     1.267   4.0% |-|
 Hamiltonian:                        8.140     0.257   0.8% |
  Atomic:                            0.007     0.007   0.0% |
   XC Correction:                    0.000     0.000   0.0% |
  Calculate atomic Hamiltonians:     0.568     0.568   1.8% ||
  Communicate:                       1.813     1.813   5.8% |-|
  Poisson:                           0.018     0.018   0.1% |
  XC 3D grid:                        5.478     5.478  17.5% |------|
 Orthonormalize:                     0.014     0.000   0.0% |
  calc_s_matrix:                     0.001     0.001   0.0% |
  inverse-cholesky:                  0.001     0.001   0.0% |
  projections:                       0.009     0.009   0.0% |
  rotate_psi_s:                      0.002     0.002   0.0% |
Set symmetry:                        0.005     0.005   0.0% |
Other:                               1.322     1.322   4.2% |-|
-----------------------------------------------------------
Total:                                        31.317 100.0%

Memory usage: 188.73 MiB
Date: Mon Dec  9 11:59:58 2019
