
  ___ ___ ___ _ _ _  
 |   |   |_  | | | | 
 | | | | | . | | | | 
 |__ |  _|___|_____|  19.8.1
 |___|_|             

User:   fadjar@cn0015
Date:   Mon Dec  9 11:54:50 2019
Arch:   x86_64
Pid:    18015
Python: 3.7.3
gpaw:   /app/anaconda3/lib/python3.7/site-packages/gpaw
_gpaw:  /app/anaconda3/bin/gpaw-python
ase:    /app/anaconda3/lib/python3.7/site-packages/ase-3.18.0-py3.7.egg/ase (version 3.18.0)
numpy:  /app/anaconda3/lib/python3.7/site-packages/numpy (version 1.16.4)
scipy:  /app/anaconda3/lib/python3.7/site-packages/scipy (version 1.3.0)
libxc:  4.3.4
units:  Angstrom and eV
cores:  20

Input parameters:
  kpts: [6 6 1]
  mode: {ecut: 750.0,
         gammacentered: False,
         name: pw}
  xc: PBE

System changes: positions, numbers, cell, pbc, initial_charges, initial_magmoms 

Initialize ...

Al-setup:
  name: Aluminium
  id: 0292cae29f5d6237e50f6abdd43a7bdd
  Z: 13
  valence: 3
  core: 10
  charge: 0.0
  file: /app/gpaw-setups-0.9.20000/Al.PBE.gz
  compensation charges: gauss, rc=0.34, lmax=2
  cutoffs: 1.91(filt), 2.36(core),
  valence states:
                energy  radius
    3s(2.00)    -7.753   1.085
    3p(1.00)    -2.712   1.085
    *s          19.459   1.085
    *p          24.499   1.085
    *d           0.000   1.085

  Using partial waves for Al as LCAO basis

C-setup:
  name: Carbon
  id: 4aa54d4b901d75f77cc0ea3eec22967b
  Z: 6
  valence: 4
  core: 2
  charge: 0.0
  file: /app/gpaw-setups-0.9.20000/C.PBE.gz
  compensation charges: gauss, rc=0.20, lmax=2
  cutoffs: 1.14(filt), 1.14(core),
  valence states:
                energy  radius
    2s(2.00)   -13.751   0.635
    2p(2.00)    -5.284   0.635
    *s          13.461   0.635
    *p          21.927   0.635
    *d           0.000   0.635

  Using partial waves for C as LCAO basis

O-setup:
  name: Oxygen
  id: 32ecd46bf208036f09c70b0ec9a88b78
  Z: 8
  valence: 6
  core: 2
  charge: 0.0
  file: /app/gpaw-setups-0.9.20000/O.PBE.gz
  compensation charges: gauss, rc=0.21, lmax=2
  cutoffs: 1.17(filt), 0.83(core),
  valence states:
                energy  radius
    2s(2.00)   -23.961   0.688
    2p(4.00)    -9.029   0.598
    *s           3.251   0.688
    *p          18.182   0.598
    *d           0.000   0.619

  Using partial waves for O as LCAO basis

Reference energy: -22878.750211

Spin-paired calculation

Occupation numbers:
  Fermi-Dirac: width=0.1000 eV

Convergence criteria:
  Maximum total energy change: 0.0005 eV / electron
  Maximum integral of absolute density change: 0.0001 electrons
  Maximum integral of absolute eigenstate change: 4e-08 eV^2
  Maximum number of iterations: 333

Symmetries present (total): 6

  ( 1  0  0)  ( 1 -1  0)  ( 0  1  0)  ( 0 -1  0)  (-1  1  0)  (-1  0  0)
  ( 0  1  0)  ( 0 -1  0)  ( 1  0  0)  ( 1 -1  0)  (-1  0  0)  (-1  1  0)
  ( 0  0  1)  ( 0  0  1)  ( 0  0  1)  ( 0  0  1)  ( 0  0  1)  ( 0  0  1)
Note: your k-points are not as symmetric as your crystal!

36 k-points: 6 x 6 x 1 Monkhorst-Pack grid
12 k-points in the irreducible part of the Brillouin zone
       k-points in crystal coordinates                weights
   0:     0.08333333   -0.08333333    0.00000000          2/36
   1:     0.08333333    0.08333333    0.00000000          2/36
   2:     0.25000000   -0.25000000    0.00000000          2/36
   3:     0.25000000   -0.08333333    0.00000000          4/36
   4:     0.25000000    0.08333333    0.00000000          4/36
   5:     0.25000000    0.25000000    0.00000000          2/36
   6:     0.41666667   -0.41666667    0.00000000          2/36
   7:     0.41666667   -0.25000000    0.00000000          4/36
   8:     0.41666667   -0.08333333    0.00000000          4/36
   9:     0.41666667    0.08333333    0.00000000          4/36
          ...
  11:     0.41666667    0.41666667    0.00000000          2/36

Wave functions: Plane wave expansion
  Cutoff energy: 750.000 eV
  Number of coefficients (min, max): 10085, 10199
  Pulay-stress correction: 0.000000 eV/Ang^3 (de/decut=0.000000)
  Using Numpy's FFT
  ScaLapack parameters: grid=1x1, blocksize=None
  Wavefunction extrapolation:
    Improved wavefunction reuse through dual PAW basis 

Eigensolver
   Davidson(niter=2, smin=None, normalize=True) 

Densities:
  Coarse grid: 20*20*196 grid
  Fine grid: 40*40*392 grid
  Total Charge: 0.000000 

Density mixing:
  Method: separate
  Backend: pulay
  Linear mixing parameter: 0.05
  Mixing with 5 old densities
  Damping of long wave oscillations: 50 

Hamiltonian:
  XC and Coulomb potentials evaluated on a 40*40*392 grid
  Using the PBE Exchange-Correlation functional
 

XC parameters: PBE with 2 nearest neighbor stencil

Memory estimate:
  Process memory now: 169.14 MiB
  Calculator: 24.82 MiB
    Density: 7.59 MiB
      Arrays: 3.14 MiB
      Localized functions: 3.23 MiB
      Mixer: 1.22 MiB
    Hamiltonian: 2.14 MiB
      Arrays: 2.05 MiB
      XC: 0.00 MiB
      Poisson: 0.00 MiB
      vbar: 0.09 MiB
    Wavefunctions: 15.09 MiB
      Arrays psit_nG: 7.47 MiB
      Eigensolver: 3.31 MiB
      Projections: 0.01 MiB
      Projectors: 1.12 MiB
      PW-descriptor: 3.18 MiB

Total number of cores used: 20
Parallelization over k-points: 4
Domain decomposition: 1 x 1 x 5

Number of atoms: 5
Number of atomic orbitals: 20
Number of bands in calculation: 16
Bands to converge: occupied states only
Number of valence electrons: 19

... initialized

Initializing position-dependent things.

Density initialized from atomic densities
Creating initial wave functions:
  16 bands from LCAO basis set

                    
                    
                    
                    
       O            
                    
       C            
                    
                    
       Al           
                    
        Al          
                    
                    
           Al       
                    
                    
                    
                    

Positions:
   0 Al     1.430477    0.825886   13.000000    ( 0.0000,  0.0000,  0.0000)
   1 Al     0.000000    1.651773   15.335959    ( 0.0000,  0.0000,  0.0000)
   2 Al     0.000000    0.000000   17.671918    ( 0.0000,  0.0000,  0.0000)
   3 C      0.000000    0.000000   19.471918    ( 0.0000,  0.0000,  0.0000)
   4 O      0.000000    0.000000   20.901918    ( 0.0000,  0.0000,  0.0000)

Unit cell:
           periodic     x           y           z      points  spacing
  1. axis:    yes    2.860954    0.000000    0.000000    20     0.1239
  2. axis:    yes    1.430477    2.477659    0.000000    20     0.1239
  3. axis:    no     0.000000    0.000000   30.671918   196     0.1565

  Lengths:   2.860954   2.860954  30.671918
  Angles:   90.000000  90.000000  60.000000

Effective grid spacing dv^(1/3) = 0.1405

                     log10-error:    total        iterations:
           time      wfs    density  energy       fermi  poisson
iter:   1  11:54:52  +0.87   +inf   -27.061745    3             
iter:   2  11:54:53  -0.47  -0.62   -29.537782    4             
iter:   3  11:54:54  -2.19  -0.63   -23.750798    4             
iter:   4  11:54:54  -2.92  -0.94   -23.670425    3             
iter:   5  11:54:55  -1.18  -0.97   -24.042905    4             
iter:   6  11:54:56  -1.55  -1.00   -23.401819    32            
iter:   7  11:54:56  -2.15  -1.35   -23.390454    4             
iter:   8  11:54:57  -2.90  -1.48   -23.341973    5             
iter:   9  11:54:58  -3.95  -1.69   -23.341654    3             
iter:  10  11:54:58  -4.15  -1.69   -23.343603    3             
iter:  11  11:54:59  -3.64  -1.71   -23.330610    4             
iter:  12  11:55:00  -2.98  -1.78   -23.323216    5             
iter:  13  11:55:00  -4.20  -2.00   -23.322341    3             
iter:  14  11:55:01  -3.78  -2.08   -23.319627    2             
iter:  15  11:55:02  -4.02  -2.31   -23.318698    3             
iter:  16  11:55:03  -4.97  -2.56   -23.318526    3             
iter:  17  11:55:03  -4.90  -2.70   -23.318418    3             
iter:  18  11:55:04  -5.92  -2.89   -23.318410    3             
iter:  19  11:55:05  -5.63  -2.95   -23.318403    3             
iter:  20  11:55:05  -5.54  -3.17   -23.318400    2             
iter:  21  11:55:06  -5.99  -3.26   -23.318392    3             
iter:  22  11:55:07  -6.85  -3.45   -23.318389    2             
iter:  23  11:55:07  -6.76  -3.54   -23.318392    2             
iter:  24  11:55:08  -6.79  -3.75   -23.318390    2             
iter:  25  11:55:09  -7.34  -3.95   -23.318392    2             
iter:  26  11:55:09  -8.03  -4.06   -23.318393    2             

Converged after 26 iterations.

Dipole moment: (-0.044656, -0.025782, -0.203478) |e|*Ang

Energy contributions relative to reference atoms: (reference = -22878.750211)

Kinetic:        +14.360110
Potential:      -13.050928
External:        +0.000000
XC:             -24.819268
Entropy (-ST):   -0.075881
Local:           +0.229634
--------------------------
Free energy:    -23.356333
Extrapolated:   -23.318393

Fermi level: -2.35999

Showing only first 2 kpts
 Kpt  Band  Eigenvalues  Occupancy
  0     7     -4.05980    0.11111
  0     8     -2.95931    0.11083
  0     9      0.10373    0.00000
  0    10      0.85061    0.00000

  1     7     -3.96029    0.11111
  1     8     -3.20706    0.11109
  1     9      0.42982    0.00000
  1    10      0.84185    0.00000


No gap
Timing:                              incl.     excl.
-----------------------------------------------------------
Hamiltonian:                         0.216     0.007   0.0% |
 Atomic:                             0.000     0.000   0.0% |
  XC Correction:                     0.000     0.000   0.0% |
 Calculate atomic Hamiltonians:      0.007     0.007   0.0% |
 Communicate:                        0.065     0.065   0.3% |
 Initialize Hamiltonian:             0.000     0.000   0.0% |
 Poisson:                            0.000     0.000   0.0% |
 XC 3D grid:                         0.136     0.136   0.7% |
LCAO initialization:                 0.953     0.137   0.7% |
 LCAO eigensolver:                   0.228     0.000   0.0% |
  Calculate projections:             0.000     0.000   0.0% |
  DenseAtomicCorrection:             0.000     0.000   0.0% |
  Distribute overlap matrix:         0.227     0.227   1.2% |
  Orbital Layouts:                   0.001     0.001   0.0% |
  Potential matrix:                  0.000     0.000   0.0% |
  Sum over cells:                    0.000     0.000   0.0% |
 LCAO to grid:                       0.485     0.485   2.5% ||
 Set positions (LCAO WFS):           0.102     0.061   0.3% |
  Basic WFS set positions:           0.001     0.001   0.0% |
  Basis functions set positions:     0.000     0.000   0.0% |
  P tci:                             0.000     0.000   0.0% |
  ST tci:                            0.012     0.012   0.1% |
  mktci:                             0.028     0.028   0.1% |
PWDescriptor:                        0.023     0.023   0.1% |
SCF-cycle:                          17.319     0.124   0.6% |
 Davidson:                           7.867     0.987   5.0% |-|
  Apply H:                           1.562     1.524   7.7% |--|
   HMM T:                            0.038     0.038   0.2% |
  Subspace diag:                     1.744     0.008   0.0% |
   calc_h_matrix:                    1.647     0.041   0.2% |
    Apply H:                         1.606     1.565   8.0% |--|
     HMM T:                          0.040     0.040   0.2% |
   diagonalize:                      0.033     0.033   0.2% |
   rotate_psi:                       0.056     0.056   0.3% |
  calc. matrices:                    3.416     0.278   1.4% ||
   Apply H:                          3.138     3.057  15.5% |-----|
    HMM T:                           0.080     0.080   0.4% |
  diagonalize:                       0.074     0.074   0.4% |
  rotate_psi:                        0.083     0.083   0.4% |
 Density:                            3.592     0.001   0.0% |
  Atomic density matrices:           0.030     0.030   0.2% |
  Mix:                               1.612     1.612   8.2% |--|
  Multipole moments:                 0.004     0.004   0.0% |
  Pseudo density:                    1.946     1.096   5.6% |-|
   Symmetrize density:               0.851     0.851   4.3% |-|
 Hamiltonian:                        5.724     0.194   1.0% |
  Atomic:                            0.007     0.007   0.0% |
   XC Correction:                    0.000     0.000   0.0% |
  Calculate atomic Hamiltonians:     0.334     0.334   1.7% ||
  Communicate:                       1.677     1.677   8.5% |--|
  Poisson:                           0.014     0.014   0.1% |
  XC 3D grid:                        3.497     3.497  17.8% |------|
 Orthonormalize:                     0.012     0.000   0.0% |
  calc_s_matrix:                     0.001     0.001   0.0% |
  inverse-cholesky:                  0.001     0.001   0.0% |
  projections:                       0.008     0.008   0.0% |
  rotate_psi_s:                      0.001     0.001   0.0% |
Set symmetry:                        0.005     0.005   0.0% |
Other:                               1.164     1.164   5.9% |-|
-----------------------------------------------------------
Total:                                        19.679 100.0%

Memory usage: 172.70 MiB
Date: Mon Dec  9 11:55:09 2019
