
  ___ ___ ___ _ _ _  
 |   |   |_  | | | | 
 | | | | | . | | | | 
 |__ |  _|___|_____|  19.8.1
 |___|_|             

User:   fadjar@cn0016
Date:   Mon Dec  9 15:51:37 2019
Arch:   x86_64
Pid:    1364
Python: 3.7.3
gpaw:   /app/anaconda3/lib/python3.7/site-packages/gpaw
_gpaw:  /app/anaconda3/bin/gpaw-python
ase:    /app/anaconda3/lib/python3.7/site-packages/ase-3.18.0-py3.7.egg/ase (version 3.18.0)
numpy:  /app/anaconda3/lib/python3.7/site-packages/numpy (version 1.16.4)
scipy:  /app/anaconda3/lib/python3.7/site-packages/scipy (version 1.3.0)
libxc:  4.3.4
units:  Angstrom and eV
cores:  10

Input parameters:
  mode: {ecut: 750.0,
         gammacentered: False,
         name: pw}
  xc: PBE

System changes: positions, numbers, cell, pbc, initial_charges, initial_magmoms 

Initialize ...

C-setup:
  name: Carbon
  id: 4aa54d4b901d75f77cc0ea3eec22967b
  Z: 6
  valence: 4
  core: 2
  charge: 0.0
  file: /app/gpaw-setups-0.9.20000/C.PBE.gz
  compensation charges: gauss, rc=0.20, lmax=2
  cutoffs: 1.14(filt), 1.14(core),
  valence states:
                energy  radius
    2s(2.00)   -13.751   0.635
    2p(2.00)    -5.284   0.635
    *s          13.461   0.635
    *p          21.927   0.635
    *d           0.000   0.635

  Using partial waves for C as LCAO basis

O-setup:
  name: Oxygen
  id: 32ecd46bf208036f09c70b0ec9a88b78
  Z: 8
  valence: 6
  core: 2
  charge: 0.0
  file: /app/gpaw-setups-0.9.20000/O.PBE.gz
  compensation charges: gauss, rc=0.21, lmax=2
  cutoffs: 1.17(filt), 0.83(core),
  valence states:
                energy  radius
    2s(2.00)   -23.961   0.688
    2p(4.00)    -9.029   0.598
    *s           3.251   0.688
    *p          18.182   0.598
    *d           0.000   0.619

  Using partial waves for O as LCAO basis

Reference energy: -3068.480417

Spin-paired calculation

Occupation numbers:
  Fermi-Dirac: width=0.0000 eV

Convergence criteria:
  Maximum total energy change: 0.0005 eV / electron
  Maximum integral of absolute density change: 0.0001 electrons
  Maximum integral of absolute eigenstate change: 4e-08 eV^2
  Maximum number of iterations: 333

Symmetries present (total): 1

  ( 1  0  0)
  ( 0  1  0)
  ( 0  0  1)

1 k-point (Gamma)
1 k-point in the irreducible part of the Brillouin zone
       k-points in crystal coordinates                weights
   0:     0.00000000    0.00000000    0.00000000          1/1

Wave functions: Plane wave expansion
  Cutoff energy: 750.000 eV
  Number of coefficients: 208077 (reduced to 104039)
  Pulay-stress correction: 0.000000 eV/Ang^3 (de/decut=0.000000)
  Using Numpy's FFT
  ScaLapack parameters: grid=1x1, blocksize=None
  Wavefunction extrapolation:
    Improved wavefunction reuse through dual PAW basis 

Eigensolver
   Davidson(niter=2, smin=None, normalize=True) 

Densities:
  Coarse grid: 105*105*112 grid
  Fine grid: 210*210*224 grid
  Total Charge: 0.000000 

Density mixing:
  Method: separate
  Backend: pulay
  Linear mixing parameter: 0.05
  Mixing with 5 old densities
  Damping of long wave oscillations: 50 

Hamiltonian:
  XC and Coulomb potentials evaluated on a 210*210*224 grid
  Using the PBE Exchange-Correlation functional
 

XC parameters: PBE with 2 nearest neighbor stencil

Memory estimate:
  Process memory now: 544.59 MiB
  Calculator: 138.01 MiB
    Density: 62.05 MiB
      Arrays: 24.66 MiB
      Localized functions: 27.62 MiB
      Mixer: 9.77 MiB
    Hamiltonian: 16.79 MiB
      Arrays: 16.12 MiB
      XC: 0.00 MiB
      Poisson: 0.00 MiB
      vbar: 0.67 MiB
    Wavefunctions: 59.17 MiB
      Arrays psit_nG: 12.70 MiB
      Eigensolver: 20.64 MiB
      Projections: 0.00 MiB
      Projectors: 1.51 MiB
      PW-descriptor: 24.32 MiB

Total number of cores used: 10
Domain decomposition: 1 x 2 x 5

Number of atoms: 2
Number of atomic orbitals: 8
Number of bands in calculation: 8
Bands to converge: occupied states only
Number of valence electrons: 10

... initialized

Initializing position-dependent things.

Density initialized from atomic densities
Creating initial wave functions:
  8 bands from LCAO basis set

           .--------------------------------------.  
          /|                                      |  
         / |                                      |  
        /  |                                      |  
       /   |                                      |  
      /    |                                      |  
     /     |                                      |  
    /      |                                      |  
   /       |                                      |  
  /        |                                      |  
 *         |                                      |  
 |         |                                      |  
 |         |                                      |  
 |         |                                      |  
 |         |                                      |  
 |         |              O                       |  
 |         |              C                       |  
 |         |                                      |  
 |         |                                      |  
 |         |                                      |  
 |         |                                      |  
 |         .--------------------------------------.  
 |        /                                      /   
 |       /                                      /    
 |      /                                      /     
 |     /                                      /      
 |    /                                      /       
 |   /                                      /        
 |  /                                      /         
 | /                                      /          
 |/                                      /           
 *--------------------------------------*            

Positions:
   0 C      8.000000    8.000000    8.000000    ( 0.0000,  0.0000,  0.0000)
   1 O      8.000000    8.000000    9.430000    ( 0.0000,  0.0000,  0.0000)

Unit cell:
           periodic     x           y           z      points  spacing
  1. axis:    no    16.000000    0.000000    0.000000   105     0.1524
  2. axis:    no     0.000000   16.000000    0.000000   105     0.1524
  3. axis:    no     0.000000    0.000000   17.430000   112     0.1556

  Lengths:  16.000000  16.000000  17.430000
  Angles:   90.000000  90.000000  90.000000

Effective grid spacing dv^(1/3) = 0.1535

                     log10-error:    total        iterations:
           time      wfs    density  energy       fermi  poisson
iter:   1  15:51:44  +0.79   +inf   -13.211033    0             
iter:   2  15:51:47  -1.36  -0.85   -12.922039    0             
iter:   3  15:51:50  -1.39  -0.93   -12.598200    0             
iter:   4  15:51:53  -2.29  -1.22   -12.595027    0             
iter:   5  15:51:57  -1.90  -1.19   -12.526487    0             
iter:   6  15:52:00  -3.05  -2.02   -12.522576    0             
iter:   7  15:52:03  -3.05  -2.18   -12.529161    0             
iter:   8  15:52:06  -2.57  -1.89   -12.520545    0             
iter:   9  15:52:09  -4.22  -2.87   -12.520503    0             
iter:  10  15:52:13  -5.17  -3.08   -12.520494    0             
iter:  11  15:52:16  -5.35  -3.08   -12.520515    0             
iter:  12  15:52:19  -6.07  -3.01   -12.520516    0             
iter:  13  15:52:22  -4.77  -3.00   -12.520490    0             
iter:  14  15:52:25  -4.88  -3.11   -12.520522    0             
iter:  15  15:52:29  -5.12  -3.01   -12.520478    0             
iter:  16  15:52:32  -6.40  -3.63   -12.520478    0             
iter:  17  15:52:35  -6.80  -3.67   -12.520479    0             
iter:  18  15:52:38  -5.70  -3.77   -12.520481    0             
iter:  19  15:52:42  -6.76  -3.61   -12.520478    0             
iter:  20  15:52:45  -7.57  -4.13   -12.520478    0             

Converged after 20 iterations.

Dipole moment: (0.000000, 0.000000, -0.160751) |e|*Ang

Energy contributions relative to reference atoms: (reference = -3068.480417)

Kinetic:         -4.677319
Potential:       -2.697443
External:        +0.000000
XC:              -5.396171
Entropy (-ST):   +0.000000
Local:           +0.250455
--------------------------
Free energy:    -12.520478
Extrapolated:   -12.520478

Fermi level: -6.84120

 Band  Eigenvalues  Occupancy
    0    -25.58089    2.00000
    1    -14.36711    2.00000
    2     -9.73391    2.00000
    3     -9.73391    2.00000
    4     -9.41519    2.00000
    5     -4.26721    0.00000
    6     -4.26721    0.00000
    7     -0.19796    0.00000

Gap: 5.148 eV
Transition (v -> c):
  (s=0, k=0, n=4, [0.00, 0.00, 0.00]) -> (s=0, k=0, n=5, [0.00, 0.00, 0.00])

Forces in eV/Ang:
  0 C    -0.00000   -0.00000   12.57713
  1 O    -0.00000    0.00000  -12.55962

System changes: positions 

Initializing position-dependent things.

Density initialized from wave functions
           .--------------------------------------.  
          /|                                      |  
         / |                                      |  
        /  |                                      |  
       /   |                                      |  
      /    |                                      |  
     /     |                                      |  
    /      |                                      |  
   /       |                                      |  
  /        |                                      |  
 *         |                                      |  
 |         |                                      |  
 |         |                                      |  
 |         |                                      |  
 |         |                                      |  
 |         |             O                        |  
 |         |              C                       |  
 |         |                                      |  
 |         |                                      |  
 |         |                                      |  
 |         |                                      |  
 |         .--------------------------------------.  
 |        /                                      /   
 |       /                                      /    
 |      /                                      /     
 |     /                                      /      
 |    /                                      /       
 |   /                                      /        
 |  /                                      /         
 | /                                      /          
 |/                                      /           
 *--------------------------------------*            

Positions:
   0 C      8.000000    8.000000    8.000000    ( 0.0000,  0.0000,  0.0000)
   1 O      8.000000    8.000000    9.390000    ( 0.0000,  0.0000,  0.0000)

Unit cell:
           periodic     x           y           z      points  spacing
  1. axis:    no    16.000000    0.000000    0.000000   105     0.1524
  2. axis:    no     0.000000   16.000000    0.000000   105     0.1524
  3. axis:    no     0.000000    0.000000   17.430000   112     0.1556

  Lengths:  16.000000  16.000000  17.430000
  Angles:   90.000000  90.000000  90.000000

Effective grid spacing dv^(1/3) = 0.1535

                     log10-error:    total        iterations:
           time      wfs    density  energy       fermi  poisson
iter:   1  15:52:49  -1.45   +inf   -13.027702    0             
iter:   2  15:52:52  -3.19  -1.93   -13.026325    0             
iter:   3  15:52:55  -3.38  -1.95   -13.022093    0             
iter:   4  15:52:58  -3.65  -2.08   -13.019918    0             
iter:   5  15:53:01  -3.07  -2.25   -13.018394    0             
iter:   6  15:53:05  -4.26  -2.98   -13.018418    0             
iter:   7  15:53:08  -5.24  -2.98   -13.018444    0             
iter:   8  15:53:11  -4.88  -3.02   -13.018424    0             
iter:   9  15:53:14  -6.25  -3.83   -13.018424    0             
iter:  10  15:53:17  -6.60  -3.84   -13.018423    0             
iter:  11  15:53:21  -6.27  -3.96   -13.018425    0             
iter:  12  15:53:24  -6.24  -3.76   -13.018423    0             
iter:  13  15:53:27  -7.38  -4.09   -13.018423    0             
iter:  14  15:53:30  -8.24  -4.18   -13.018423    0             

Converged after 14 iterations.

Dipole moment: (-0.000000, 0.000000, -0.133496) |e|*Ang

Energy contributions relative to reference atoms: (reference = -3068.480417)

Kinetic:         -3.290176
Potential:       -3.997453
External:        +0.000000
XC:              -5.980604
Entropy (-ST):   +0.000000
Local:           +0.249809
--------------------------
Free energy:    -13.018423
Extrapolated:   -13.018423

Fermi level: -6.71452

 Band  Eigenvalues  Occupancy
    0    -25.98578    2.00000
    1    -14.31632    2.00000
    2     -9.95561    2.00000
    3     -9.95561    2.00000
    4     -9.39712    2.00000
    5     -4.03192    0.00000
    6     -4.03192    0.00000
    7     -0.19344    0.00000

Gap: 5.365 eV
Transition (v -> c):
  (s=0, k=0, n=4, [0.00, 0.00, 0.00]) -> (s=0, k=0, n=5, [0.00, 0.00, 0.00])

Forces in eV/Ang:
  0 C     0.00000    0.00000   12.29230
  1 O    -0.00000   -0.00000  -12.30400

System changes: positions 

Initializing position-dependent things.

Density initialized from wave functions
           .--------------------------------------.  
          /|                                      |  
         / |                                      |  
        /  |                                      |  
       /   |                                      |  
      /    |                                      |  
     /     |                                      |  
    /      |                                      |  
   /       |                                      |  
  /        |                                      |  
 *         |                                      |  
 |         |                                      |  
 |         |                                      |  
 |         |                                      |  
 |         |                                      |  
 |         |             O                        |  
 |         |              C                       |  
 |         |                                      |  
 |         |                                      |  
 |         |                                      |  
 |         |                                      |  
 |         .--------------------------------------.  
 |        /                                      /   
 |       /                                      /    
 |      /                                      /     
 |     /                                      /      
 |    /                                      /       
 |   /                                      /        
 |  /                                      /         
 | /                                      /          
 |/                                      /           
 *--------------------------------------*            

Positions:
   0 C      8.000000    8.000000    8.000000    ( 0.0000,  0.0000,  0.0000)
   1 O      8.000000    8.000000    9.350000    ( 0.0000,  0.0000,  0.0000)

Unit cell:
           periodic     x           y           z      points  spacing
  1. axis:    no    16.000000    0.000000    0.000000   105     0.1524
  2. axis:    no     0.000000   16.000000    0.000000   105     0.1524
  3. axis:    no     0.000000    0.000000   17.430000   112     0.1556

  Lengths:  16.000000  16.000000  17.430000
  Angles:   90.000000  90.000000  90.000000

Effective grid spacing dv^(1/3) = 0.1535

                     log10-error:    total        iterations:
           time      wfs    density  energy       fermi  poisson
iter:   1  15:53:34  -1.43   +inf   -13.510316    0             
iter:   2  15:53:37  -3.18  -1.92   -13.509001    0             
iter:   3  15:53:40  -3.31  -1.94   -13.504283    0             
iter:   4  15:53:44  -3.70  -2.10   -13.502390    0             
iter:   5  15:53:47  -3.12  -2.25   -13.500923    0             
iter:   6  15:53:50  -4.33  -2.95   -13.500950    0             
iter:   7  15:53:53  -5.08  -2.96   -13.500979    0             
iter:   8  15:53:56  -4.92  -3.03   -13.500951    0             
iter:   9  15:54:00  -6.35  -3.85   -13.500951    0             
iter:  10  15:54:03  -7.10  -3.87   -13.500950    0             
iter:  11  15:54:06  -6.40  -3.93   -13.500952    0             
iter:  12  15:54:09  -7.01  -3.86   -13.500951    0             
iter:  13  15:54:13  -7.15  -4.24   -13.500951    0             
iter:  14  15:54:16  -8.38  -4.84   -13.500951    0             

Converged after 14 iterations.

Dipole moment: (0.000000, 0.000000, -0.106187) |e|*Ang

Energy contributions relative to reference atoms: (reference = -3068.480417)

Kinetic:         -1.536971
Potential:       -5.590938
External:        +0.000000
XC:              -6.621563
Entropy (-ST):   +0.000000
Local:           +0.248521
--------------------------
Free energy:    -13.500951
Extrapolated:   -13.500951

Fermi level: -6.57215

 Band  Eigenvalues  Occupancy
    0    -26.42019    2.00000
    1    -14.26954    2.00000
    2    -10.19233    2.00000
    3    -10.19233    2.00000
    4     -9.36743    2.00000
    5     -3.77686    0.00000
    6     -3.77686    0.00000
    7     -0.18872    0.00000

Gap: 5.591 eV
Transition (v -> c):
  (s=0, k=0, n=4, [0.00, 0.00, 0.00]) -> (s=0, k=0, n=5, [0.00, 0.00, 0.00])

Forces in eV/Ang:
  0 C     0.00000   -0.00000   11.77502
  1 O     0.00000    0.00000  -11.77629

System changes: positions 

Initializing position-dependent things.

Density initialized from wave functions
           .--------------------------------------.  
          /|                                      |  
         / |                                      |  
        /  |                                      |  
       /   |                                      |  
      /    |                                      |  
     /     |                                      |  
    /      |                                      |  
   /       |                                      |  
  /        |                                      |  
 *         |                                      |  
 |         |                                      |  
 |         |                                      |  
 |         |                                      |  
 |         |                                      |  
 |         |              O                       |  
 |         |              C                       |  
 |         |                                      |  
 |         |                                      |  
 |         |                                      |  
 |         |                                      |  
 |         .--------------------------------------.  
 |        /                                      /   
 |       /                                      /    
 |      /                                      /     
 |     /                                      /      
 |    /                                      /       
 |   /                                      /        
 |  /                                      /         
 | /                                      /          
 |/                                      /           
 *--------------------------------------*            

Positions:
   0 C      8.000000    8.000000    8.000000    ( 0.0000,  0.0000,  0.0000)
   1 O      8.000000    8.000000    9.310000    ( 0.0000,  0.0000,  0.0000)

Unit cell:
           periodic     x           y           z      points  spacing
  1. axis:    no    16.000000    0.000000    0.000000   105     0.1524
  2. axis:    no     0.000000   16.000000    0.000000   105     0.1524
  3. axis:    no     0.000000    0.000000   17.430000   112     0.1556

  Lengths:  16.000000  16.000000  17.430000
  Angles:   90.000000  90.000000  90.000000

Effective grid spacing dv^(1/3) = 0.1535

                     log10-error:    total        iterations:
           time      wfs    density  energy       fermi  poisson
iter:   1  15:54:20  -1.42   +inf   -13.965098    0             
iter:   2  15:54:23  -3.17  -1.92   -13.963843    0             
iter:   3  15:54:26  -3.24  -1.94   -13.958658    0             
iter:   4  15:54:29  -3.79  -2.12   -13.957099    0             
iter:   5  15:54:32  -3.20  -2.26   -13.955719    0             
iter:   6  15:54:36  -4.39  -2.92   -13.955749    0             
iter:   7  15:54:39  -4.94  -2.94   -13.955775    0             
iter:   8  15:54:42  -4.96  -3.04   -13.955743    0             
iter:   9  15:54:45  -6.34  -3.84   -13.955744    0             
iter:  10  15:54:48  -6.75  -3.85   -13.955744    0             
iter:  11  15:54:52  -6.54  -3.77   -13.955743    0             
iter:  12  15:54:55  -7.43  -4.30   -13.955743    0             

Converged after 12 iterations.

Dipole moment: (0.000000, 0.000000, -0.078414) |e|*Ang

Energy contributions relative to reference atoms: (reference = -3068.480417)

Kinetic:         +0.615078
Potential:       -7.493775
External:        +0.000000
XC:              -7.324237
Entropy (-ST):   +0.000000
Local:           +0.247190
--------------------------
Free energy:    -13.955743
Extrapolated:   -13.955743

Fermi level: -6.41340

 Band  Eigenvalues  Occupancy
    0    -26.88386    2.00000
    1    -14.22777    2.00000
    2    -10.44557    2.00000
    3    -10.44557    2.00000
    4     -9.32538    2.00000
    5     -3.50142    0.00000
    6     -3.50142    0.00000
    7     -0.18442    0.00000

Gap: 5.824 eV
Transition (v -> c):
  (s=0, k=0, n=4, [0.00, 0.00, 0.00]) -> (s=0, k=0, n=5, [0.00, 0.00, 0.00])

Forces in eV/Ang:
  0 C    -0.00000   -0.00000   10.89813
  1 O    -0.00000    0.00000  -10.90298

System changes: positions 

Initializing position-dependent things.

Density initialized from wave functions
           .--------------------------------------.  
          /|                                      |  
         / |                                      |  
        /  |                                      |  
       /   |                                      |  
      /    |                                      |  
     /     |                                      |  
    /      |                                      |  
   /       |                                      |  
  /        |                                      |  
 *         |                                      |  
 |         |                                      |  
 |         |                                      |  
 |         |                                      |  
 |         |                                      |  
 |         |              O                       |  
 |         |              C                       |  
 |         |                                      |  
 |         |                                      |  
 |         |                                      |  
 |         |                                      |  
 |         .--------------------------------------.  
 |        /                                      /   
 |       /                                      /    
 |      /                                      /     
 |     /                                      /      
 |    /                                      /       
 |   /                                      /        
 |  /                                      /         
 | /                                      /          
 |/                                      /           
 *--------------------------------------*            

Positions:
   0 C      8.000000    8.000000    8.000000    ( 0.0000,  0.0000,  0.0000)
   1 O      8.000000    8.000000    9.270000    ( 0.0000,  0.0000,  0.0000)

Unit cell:
           periodic     x           y           z      points  spacing
  1. axis:    no    16.000000    0.000000    0.000000   105     0.1524
  2. axis:    no     0.000000   16.000000    0.000000   105     0.1524
  3. axis:    no     0.000000    0.000000   17.430000   112     0.1556

  Lengths:  16.000000  16.000000  17.430000
  Angles:   90.000000  90.000000  90.000000

Effective grid spacing dv^(1/3) = 0.1535

                     log10-error:    total        iterations:
           time      wfs    density  energy       fermi  poisson
iter:   1  15:54:59  -1.40   +inf   -14.376095    0             
iter:   2  15:55:02  -3.16  -1.92   -14.374946    0             
iter:   3  15:55:05  -3.17  -1.94   -14.369283    0             
iter:   4  15:55:08  -3.87  -2.15   -14.368060    0             
iter:   5  15:55:11  -3.30  -2.28   -14.366853    0             
iter:   6  15:55:15  -4.42  -2.89   -14.366892    0             
iter:   7  15:55:18  -4.83  -2.91   -14.366906    0             
iter:   8  15:55:21  -5.04  -3.08   -14.366876    0             
iter:   9  15:55:24  -6.46  -3.82   -14.366876    0             
iter:  10  15:55:28  -7.20  -3.84   -14.366875    0             
iter:  11  15:55:31  -6.63  -3.91   -14.366875    0             
iter:  12  15:55:34  -8.05  -4.41   -14.366875    0             

Converged after 12 iterations.

Dipole moment: (0.000000, 0.000000, -0.050522) |e|*Ang

Energy contributions relative to reference atoms: (reference = -3068.480417)

Kinetic:         +3.254514
Potential:       -9.771651
External:        +0.000000
XC:              -8.095423
Entropy (-ST):   +0.000000
Local:           +0.245684
--------------------------
Free energy:    -14.366875
Extrapolated:   -14.366875

Fermi level: -6.23801

 Band  Eigenvalues  Occupancy
    0    -27.37549    2.00000
    1    -14.19150    2.00000
    2    -10.71613    2.00000
    3    -10.71613    2.00000
    4     -9.27167    2.00000
    5     -3.20435    0.00000
    6     -3.20435    0.00000
    7     -0.18049    0.00000

Gap: 6.067 eV
Transition (v -> c):
  (s=0, k=0, n=4, [0.00, 0.00, 0.00]) -> (s=0, k=0, n=5, [0.00, 0.00, 0.00])

Forces in eV/Ang:
  0 C    -0.00000   -0.00000    9.57021
  1 O    -0.00000    0.00000   -9.57700

System changes: positions 

Initializing position-dependent things.

Density initialized from wave functions
           .--------------------------------------.  
          /|                                      |  
         / |                                      |  
        /  |                                      |  
       /   |                                      |  
      /    |                                      |  
     /     |                                      |  
    /      |                                      |  
   /       |                                      |  
  /        |                                      |  
 *         |                                      |  
 |         |                                      |  
 |         |                                      |  
 |         |                                      |  
 |         |                                      |  
 |         |              O                       |  
 |         |              C                       |  
 |         |                                      |  
 |         |                                      |  
 |         |                                      |  
 |         |                                      |  
 |         .--------------------------------------.  
 |        /                                      /   
 |       /                                      /    
 |      /                                      /     
 |     /                                      /      
 |    /                                      /       
 |   /                                      /        
 |  /                                      /         
 | /                                      /          
 |/                                      /           
 *--------------------------------------*            

Positions:
   0 C      8.000000    8.000000    8.000000    ( 0.0000,  0.0000,  0.0000)
   1 O      8.000000    8.000000    9.230000    ( 0.0000,  0.0000,  0.0000)

Unit cell:
           periodic     x           y           z      points  spacing
  1. axis:    no    16.000000    0.000000    0.000000   105     0.1524
  2. axis:    no     0.000000   16.000000    0.000000   105     0.1524
  3. axis:    no     0.000000    0.000000   17.430000   112     0.1556

  Lengths:  16.000000  16.000000  17.430000
  Angles:   90.000000  90.000000  90.000000

Effective grid spacing dv^(1/3) = 0.1535

                     log10-error:    total        iterations:
           time      wfs    density  energy       fermi  poisson
iter:   1  15:55:38  -1.38   +inf   -14.722851    0             
iter:   2  15:55:41  -3.14  -1.92   -14.721802    0             
iter:   3  15:55:44  -3.10  -1.94   -14.715692    0             
iter:   4  15:55:47  -3.93  -2.18   -14.714766    0             
iter:   5  15:55:51  -3.44  -2.31   -14.713783    0             
iter:   6  15:55:54  -4.42  -2.86   -14.713835    0             
iter:   7  15:55:57  -4.70  -2.89   -14.713831    0             
iter:   8  15:56:00  -5.13  -3.13   -14.713802    0             
iter:   9  15:56:03  -6.53  -3.78   -14.713802    0             
iter:  10  15:56:07  -6.57  -3.84   -14.713802    0             
iter:  11  15:56:10  -6.67  -4.04   -14.713802    0             
iter:  12  15:56:13  -8.07  -4.27   -14.713802    0             

Converged after 12 iterations.

Dipole moment: (0.000000, 0.000000, -0.022624) |e|*Ang

Energy contributions relative to reference atoms: (reference = -3068.480417)

Kinetic:         +6.481714
Potential:      -12.494703
External:        +0.000000
XC:              -8.944243
Entropy (-ST):   +0.000000
Local:           +0.243430
--------------------------
Free energy:    -14.713802
Extrapolated:   -14.713802

Fermi level: -6.04557

 Band  Eigenvalues  Occupancy
    0    -27.89227    2.00000
    1    -14.16037    2.00000
    2    -11.00442    2.00000
    3    -11.00442    2.00000
    4     -9.20664    2.00000
    5     -2.88449    0.00000
    6     -2.88449    0.00000
    7     -0.17697    0.00000

Gap: 6.322 eV
Transition (v -> c):
  (s=0, k=0, n=4, [0.00, 0.00, 0.00]) -> (s=0, k=0, n=5, [0.00, 0.00, 0.00])

Forces in eV/Ang:
  0 C     0.00000   -0.00000    7.65695
  1 O    -0.00000    0.00000   -7.66581

System changes: positions 

Initializing position-dependent things.

Density initialized from wave functions
           .--------------------------------------.  
          /|                                      |  
         / |                                      |  
        /  |                                      |  
       /   |                                      |  
      /    |                                      |  
     /     |                                      |  
    /      |                                      |  
   /       |                                      |  
  /        |                                      |  
 *         |                                      |  
 |         |                                      |  
 |         |                                      |  
 |         |                                      |  
 |         |                                      |  
 |         |             O                        |  
 |         |              C                       |  
 |         |                                      |  
 |         |                                      |  
 |         |                                      |  
 |         |                                      |  
 |         .--------------------------------------.  
 |        /                                      /   
 |       /                                      /    
 |      /                                      /     
 |     /                                      /      
 |    /                                      /       
 |   /                                      /        
 |  /                                      /         
 | /                                      /          
 |/                                      /           
 *--------------------------------------*            

Positions:
   0 C      8.000000    8.000000    8.000000    ( 0.0000,  0.0000,  0.0000)
   1 O      8.000000    8.000000    9.190000    ( 0.0000,  0.0000,  0.0000)

Unit cell:
           periodic     x           y           z      points  spacing
  1. axis:    no    16.000000    0.000000    0.000000   105     0.1524
  2. axis:    no     0.000000   16.000000    0.000000   105     0.1524
  3. axis:    no     0.000000    0.000000   17.430000   112     0.1556

  Lengths:  16.000000  16.000000  17.430000
  Angles:   90.000000  90.000000  90.000000

Effective grid spacing dv^(1/3) = 0.1535

                     log10-error:    total        iterations:
           time      wfs    density  energy       fermi  poisson
iter:   1  15:56:17  -1.35   +inf   -14.978642    0             
iter:   2  15:56:20  -3.11  -1.92   -14.977712    0             
iter:   3  15:56:23  -3.03  -1.93   -14.971126    0             
iter:   4  15:56:26  -3.94  -2.24   -14.970474    0             
iter:   5  15:56:30  -3.64  -2.36   -14.969806    0             
iter:   6  15:56:33  -4.39  -2.82   -14.969876    0             
iter:   7  15:56:36  -4.56  -2.86   -14.969846    0             
iter:   8  15:56:39  -5.28  -3.19   -14.969822    0             
iter:   9  15:56:42  -6.52  -3.75   -14.969821    0             
iter:  10  15:56:46  -6.46  -3.82   -14.969821    0             
iter:  11  15:56:49  -6.85  -4.10   -14.969821    0             
iter:  12  15:56:52  -8.30  -4.37   -14.969821    0             

Converged after 12 iterations.

Dipole moment: (0.000000, 0.000000, 0.005135) |e|*Ang

Energy contributions relative to reference atoms: (reference = -3068.480417)

Kinetic:        +10.403776
Potential:      -15.734668
External:        +0.000000
XC:              -9.879641
Entropy (-ST):   +0.000000
Local:           +0.240712
--------------------------
Free energy:    -14.969821
Extrapolated:   -14.969821

Fermi level: -5.83586

 Band  Eigenvalues  Occupancy
    0    -28.43098    2.00000
    1    -14.13399    2.00000
    2    -11.31138    2.00000
    3    -11.31138    2.00000
    4     -9.13075    2.00000
    5     -2.54098    0.00000
    6     -2.54098    0.00000
    7     -0.17385    0.00000

Gap: 6.590 eV
Transition (v -> c):
  (s=0, k=0, n=4, [0.00, 0.00, 0.00]) -> (s=0, k=0, n=5, [0.00, 0.00, 0.00])

Forces in eV/Ang:
  0 C    -0.00000   -0.00000    4.99291
  1 O    -0.00000    0.00000   -4.99955

System changes: positions 

Initializing position-dependent things.

Density initialized from wave functions
           .--------------------------------------.  
          /|                                      |  
         / |                                      |  
        /  |                                      |  
       /   |                                      |  
      /    |                                      |  
     /     |                                      |  
    /      |                                      |  
   /       |                                      |  
  /        |                                      |  
 *         |                                      |  
 |         |                                      |  
 |         |                                      |  
 |         |                                      |  
 |         |                                      |  
 |         |             O                        |  
 |         |              C                       |  
 |         |                                      |  
 |         |                                      |  
 |         |                                      |  
 |         |                                      |  
 |         .--------------------------------------.  
 |        /                                      /   
 |       /                                      /    
 |      /                                      /     
 |     /                                      /      
 |    /                                      /       
 |   /                                      /        
 |  /                                      /         
 | /                                      /          
 |/                                      /           
 *--------------------------------------*            

Positions:
   0 C      8.000000    8.000000    8.000000    ( 0.0000,  0.0000,  0.0000)
   1 O      8.000000    8.000000    9.150000    ( 0.0000,  0.0000,  0.0000)

Unit cell:
           periodic     x           y           z      points  spacing
  1. axis:    no    16.000000    0.000000    0.000000   105     0.1524
  2. axis:    no     0.000000   16.000000    0.000000   105     0.1524
  3. axis:    no     0.000000    0.000000   17.430000   112     0.1556

  Lengths:  16.000000  16.000000  17.430000
  Angles:   90.000000  90.000000  90.000000

Effective grid spacing dv^(1/3) = 0.1535

                     log10-error:    total        iterations:
           time      wfs    density  energy       fermi  poisson
iter:   1  15:56:56  -1.32   +inf   -15.109243    0             
iter:   2  15:56:59  -3.08  -1.92   -15.108412    0             
iter:   3  15:57:02  -2.97  -1.93   -15.101388    0             
iter:   4  15:57:05  -3.91  -2.32   -15.100974    0             
iter:   5  15:57:09  -3.94  -2.45   -15.100612    0             
iter:   6  15:57:12  -4.34  -2.79   -15.100704    0             
iter:   7  15:57:15  -4.46  -2.83   -15.100642    0             
iter:   8  15:57:18  -5.51  -3.29   -15.100626    0             
iter:   9  15:57:21  -6.51  -3.71   -15.100625    0             
iter:  10  15:57:25  -6.41  -3.80   -15.100625    0             
iter:  11  15:57:28  -7.18  -4.17   -15.100625    0             
iter:  12  15:57:31  -8.57  -4.41   -15.100625    0             

Converged after 12 iterations.

Dipole moment: (0.000000, 0.000000, 0.032659) |e|*Ang

Energy contributions relative to reference atoms: (reference = -3068.480417)

Kinetic:        +15.142486
Potential:      -19.568217
External:        +0.000000
XC:             -10.911131
Entropy (-ST):   +0.000000
Local:           +0.236237
--------------------------
Free energy:    -15.100625
Extrapolated:   -15.100625

Fermi level: -5.60950

 Band  Eigenvalues  Occupancy
    0    -28.98780    2.00000
    1    -14.11183    2.00000
    2    -11.63854    2.00000
    3    -11.63854    2.00000
    4     -9.04494    2.00000
    5     -2.17406    0.00000
    6     -2.17406    0.00000
    7     -0.17102    0.00000

Gap: 6.871 eV
Transition (v -> c):
  (s=0, k=0, n=4, [0.00, 0.00, 0.00]) -> (s=0, k=0, n=5, [0.00, 0.00, 0.00])

Forces in eV/Ang:
  0 C     0.00000   -0.00000    1.36304
  1 O    -0.00000    0.00000   -1.36753

System changes: positions 

Initializing position-dependent things.

Density initialized from wave functions
           .--------------------------------------.  
          /|                                      |  
         / |                                      |  
        /  |                                      |  
       /   |                                      |  
      /    |                                      |  
     /     |                                      |  
    /      |                                      |  
   /       |                                      |  
  /        |                                      |  
 *         |                                      |  
 |         |                                      |  
 |         |                                      |  
 |         |                                      |  
 |         |                                      |  
 |         |             O                        |  
 |         |              C                       |  
 |         |                                      |  
 |         |                                      |  
 |         |                                      |  
 |         |                                      |  
 |         .--------------------------------------.  
 |        /                                      /   
 |       /                                      /    
 |      /                                      /     
 |     /                                      /      
 |    /                                      /       
 |   /                                      /        
 |  /                                      /         
 | /                                      /          
 |/                                      /           
 *--------------------------------------*            

Positions:
   0 C      8.000000    8.000000    8.000000    ( 0.0000,  0.0000,  0.0000)
   1 O      8.000000    8.000000    9.134939    ( 0.0000,  0.0000,  0.0000)

Unit cell:
           periodic     x           y           z      points  spacing
  1. axis:    no    16.000000    0.000000    0.000000   105     0.1524
  2. axis:    no     0.000000   16.000000    0.000000   105     0.1524
  3. axis:    no     0.000000    0.000000   17.430000   112     0.1556

  Lengths:  16.000000  16.000000  17.430000
  Angles:   90.000000  90.000000  90.000000

Effective grid spacing dv^(1/3) = 0.1535

                     log10-error:    total        iterations:
           time      wfs    density  energy       fermi  poisson
iter:   1  15:57:35  -2.12   +inf   -15.110061    0             
iter:   2  15:57:38  -3.89  -2.33   -15.109951    0             
iter:   3  15:57:41  -3.64  -2.34   -15.108816    0             
iter:   4  15:57:44  -4.80  -2.97   -15.108815    0             
iter:   5  15:57:48  -5.54  -3.03   -15.108808    0             
iter:   6  15:57:51  -5.09  -3.17   -15.108826    0             
iter:   7  15:57:54  -5.40  -3.25   -15.108810    0             
iter:   8  15:57:57  -6.91  -4.08   -15.108810    0             
iter:   9  15:58:01  -7.02  -4.13   -15.108810    0             
iter:  10  15:58:04  -7.16  -4.15   -15.108810    0             
iter:  11  15:58:07  -8.76  -4.73   -15.108810    0             

Converged after 11 iterations.

Dipole moment: (0.000000, 0.000000, 0.042928) |e|*Ang

Energy contributions relative to reference atoms: (reference = -3068.480417)

Kinetic:        +17.166656
Potential:      -21.180913
External:        +0.000000
XC:             -11.326908
Entropy (-ST):   +0.000000
Local:           +0.232355
--------------------------
Free energy:    -15.108810
Extrapolated:   -15.108810

Fermi level: -5.52001

 Band  Eigenvalues  Occupancy
    0    -29.20089    2.00000
    1    -14.10420    2.00000
    2    -11.76708    2.00000
    3    -11.76708    2.00000
    4     -9.01015    2.00000
    5     -2.02987    0.00000
    6     -2.02987    0.00000
    7     -0.17003    0.00000

Gap: 6.980 eV
Transition (v -> c):
  (s=0, k=0, n=4, [0.00, 0.00, 0.00]) -> (s=0, k=0, n=5, [0.00, 0.00, 0.00])

Forces in eV/Ang:
  0 C    -0.00000   -0.00000   -0.30633
  1 O     0.00000    0.00000    0.30513

System changes: positions 

Initializing position-dependent things.

Density initialized from wave functions
           .--------------------------------------.  
          /|                                      |  
         / |                                      |  
        /  |                                      |  
       /   |                                      |  
      /    |                                      |  
     /     |                                      |  
    /      |                                      |  
   /       |                                      |  
  /        |                                      |  
 *         |                                      |  
 |         |                                      |  
 |         |                                      |  
 |         |                                      |  
 |         |                                      |  
 |         |             O                        |  
 |         |              C                       |  
 |         |                                      |  
 |         |                                      |  
 |         |                                      |  
 |         |                                      |  
 |         .--------------------------------------.  
 |        /                                      /   
 |       /                                      /    
 |      /                                      /     
 |     /                                      /      
 |    /                                      /       
 |   /                                      /        
 |  /                                      /         
 | /                                      /          
 |/                                      /           
 *--------------------------------------*            

Positions:
   0 C      8.000000    8.000000    8.000000    ( 0.0000,  0.0000,  0.0000)
   1 O      8.000000    8.000000    9.137687    ( 0.0000,  0.0000,  0.0000)

Unit cell:
           periodic     x           y           z      points  spacing
  1. axis:    no    16.000000    0.000000    0.000000   105     0.1524
  2. axis:    no     0.000000   16.000000    0.000000   105     0.1524
  3. axis:    no     0.000000    0.000000   17.430000   112     0.1556

  Lengths:  16.000000  16.000000  17.430000
  Angles:   90.000000  90.000000  90.000000

Effective grid spacing dv^(1/3) = 0.1535

                     log10-error:    total        iterations:
           time      wfs    density  energy       fermi  poisson
iter:   1  15:58:11  -3.57   +inf   -15.109258    0             
iter:   2  15:58:14  -5.36  -3.06   -15.109254    0             
iter:   3  15:58:17  -5.00  -3.07   -15.109215    0             
iter:   4  15:58:20  -6.43  -3.82   -15.109215    0             
iter:   5  15:58:24  -7.63  -3.83   -15.109215    0             
iter:   6  15:58:27  -6.87  -3.83   -15.109215    0             
iter:   7  15:58:30  -7.60  -4.22   -15.109215    0             

Converged after 7 iterations.

Dipole moment: (0.000000, 0.000000, 0.041124) |e|*Ang

Energy contributions relative to reference atoms: (reference = -3068.480417)

Kinetic:        +16.780565
Potential:      -20.870014
External:        +0.000000
XC:             -11.249861
Entropy (-ST):   +0.000000
Local:           +0.230094
--------------------------
Free energy:    -15.109215
Extrapolated:   -15.109215

Fermi level: -5.53633

 Band  Eigenvalues  Occupancy
    0    -29.16137    2.00000
    1    -14.10558    2.00000
    2    -11.74310    2.00000
    3    -11.74310    2.00000
    4     -9.01645    2.00000
    5     -2.05621    0.00000
    6     -2.05621    0.00000
    7     -0.17019    0.00000

Gap: 6.960 eV
Transition (v -> c):
  (s=0, k=0, n=4, [0.00, 0.00, 0.00]) -> (s=0, k=0, n=5, [0.00, 0.00, 0.00])

Forces in eV/Ang:
  0 C     0.00000   -0.00000    0.01853
  1 O     0.00000    0.00000   -0.02097

Timing:                                      incl.     excl.
-------------------------------------------------------------------
Density initialized from wave functions:     9.623     9.623   2.3% ||
 Symmetrize density:                         0.000     0.000   0.0% |
Forces:                                      1.971     1.971   0.5% |
Hamiltonian:                                14.990     0.977   0.2% |
 Atomic:                                     0.002     0.002   0.0% |
  XC Correction:                             0.000     0.000   0.0% |
 Calculate atomic Hamiltonians:              0.235     0.235   0.1% |
 Communicate:                                0.485     0.485   0.1% |
 Initialize Hamiltonian:                     0.003     0.003   0.0% |
 Poisson:                                    0.061     0.061   0.0% |
 XC 3D grid:                                13.227    13.227   3.2% ||
LCAO initialization:                         0.344     0.064   0.0% |
 LCAO eigensolver:                           0.004     0.000   0.0% |
  Calculate projections:                     0.000     0.000   0.0% |
  DenseAtomicCorrection:                     0.000     0.000   0.0% |
  Distribute overlap matrix:                 0.003     0.003   0.0% |
  Orbital Layouts:                           0.000     0.000   0.0% |
  Potential matrix:                          0.000     0.000   0.0% |
 LCAO to grid:                               0.270     0.270   0.1% |
 Set positions (LCAO WFS):                   0.005     0.002   0.0% |
  Basic WFS set positions:                   0.000     0.000   0.0% |
  Basis functions set positions:             0.000     0.000   0.0% |
  P tci:                                     0.000     0.000   0.0% |
  ST tci:                                    0.001     0.001   0.0% |
  mktci:                                     0.002     0.002   0.0% |
PWDescriptor:                                0.093     0.093   0.0% |
Redistribute:                                0.004     0.004   0.0% |
SCF-cycle:                                 378.464     0.037   0.0% |
 Davidson:                                  79.630     2.002   0.5% |
  Apply H:                                  19.201    19.113   4.6% |-|
   HMM T:                                    0.088     0.088   0.0% |
  Subspace diag:                            19.379     0.013   0.0% |
   calc_h_matrix:                           19.229     0.079   0.0% |
    Apply H:                                19.150    19.060   4.6% |-|
     HMM T:                                  0.090     0.090   0.0% |
   diagonalize:                              0.031     0.031   0.0% |
   rotate_psi:                               0.106     0.106   0.0% |
  calc. matrices:                           38.832     0.494   0.1% |
   Apply H:                                 38.337    38.161   9.2% |---|
    HMM T:                                   0.177     0.177   0.0% |
  diagonalize:                               0.054     0.054   0.0% |
  rotate_psi:                                0.162     0.162   0.0% |
 Density:                                  125.180     0.002   0.0% |
  Atomic density matrices:                   0.052     0.052   0.0% |
  Mix:                                     108.304   108.304  26.2% |---------|
  Multipole moments:                         0.015     0.015   0.0% |
  Pseudo density:                           16.807    16.805   4.1% |-|
   Symmetrize density:                       0.002     0.002   0.0% |
 Hamiltonian:                              173.577    11.287   2.7% ||
  Atomic:                                    0.028     0.028   0.0% |
   XC Correction:                            0.001     0.001   0.0% |
  Calculate atomic Hamiltonians:             2.761     2.761   0.7% |
  Communicate:                               5.614     5.614   1.4% ||
  Poisson:                                   0.709     0.709   0.2% |
  XC 3D grid:                              153.178   153.178  37.1% |--------------|
 Orthonormalize:                             0.040     0.001   0.0% |
  calc_s_matrix:                             0.005     0.005   0.0% |
  inverse-cholesky:                          0.003     0.003   0.0% |
  projections:                               0.026     0.026   0.0% |
  rotate_psi_s:                              0.006     0.006   0.0% |
Set symmetry:                                0.001     0.001   0.0% |
Other:                                       7.563     7.563   1.8% ||
-------------------------------------------------------------------
Total:                                               413.053 100.0%

Memory usage: 930.08 MiB
Date: Mon Dec  9 15:58:30 2019
