
  ___ ___ ___ _ _ _  
 |   |   |_  | | | | 
 | | | | | . | | | | 
 |__ |  _|___|_____|  19.8.1
 |___|_|             

User:   vieri@vieri
Date:   Mon Dec  9 23:56:11 2019
Arch:   x86_64
Pid:    3578
Python: 3.7.3
gpaw:   /home/vieri/.local/lib/python3.7/site-packages/gpaw
_gpaw:  /home/vieri/.local/lib/python3.7/site-packages/
        _gpaw.cpython-37m-x86_64-linux-gnu.so
ase:    /home/vieri/anaconda3/lib/python3.7/site-packages/ase (version 3.18.0)
numpy:  /home/vieri/anaconda3/lib/python3.7/site-packages/numpy (version 1.16.4)
scipy:  /home/vieri/anaconda3/lib/python3.7/site-packages/scipy (version 1.3.0)
libxc:  4.2.3
units:  Angstrom and eV
cores:  1

Input parameters:
  kpts: [4 4 1]
  mode: {ecut: 850.0,
         gammacentered: False,
         name: pw}
  xc: PBE

Date: Tue Dec 10 00:16:44 2019
