
  ___ ___ ___ _ _ _  
 |   |   |_  | | | | 
 | | | | | . | | | | 
 |__ |  _|___|_____|  19.8.1
 |___|_|             

User:   vieri@quantum
Date:   Sun Dec 29 16:03:17 2019
Arch:   x86_64
Pid:    7650
Python: 3.7.3
gpaw:   /home/vieri/anaconda3/lib/python3.7/site-packages/gpaw
_gpaw:  /home/vieri/anaconda3/bin/gpaw-python
ase:    /home/vieri/anaconda3/lib/python3.7/site-packages/ase (version 3.19.0)
numpy:  /home/vieri/anaconda3/lib/python3.7/site-packages/numpy (version 1.17.2)
scipy:  /home/vieri/anaconda3/lib/python3.7/site-packages/scipy (version 1.3.1)
libxc:  4.3.4
units:  Angstrom and eV
cores:  2

Input parameters:
  kpts: [4 4 1]
  mode: {ecut: 850.0,
         gammacentered: False,
         name: pw}
  xc: PBE

System changes: positions, numbers, cell, pbc, initial_charges, initial_magmoms 

Initialize ...

Cu-setup:
  name: Copper
  id: f1c4d45d90492f1bbfdcb091e8418fdf
  Z: 29
  valence: 11
  core: 18
  charge: 0.0
  file: /home/vieri/.local/bin/gpaw-setups-0.9.20000/Cu.PBE.gz
  compensation charges: gauss, rc=0.33, lmax=2
  cutoffs: 2.06(filt), 2.43(core),
  valence states:
                energy  radius
    4s(1.00)    -4.609   1.164
    4p(0.00)    -0.698   1.164
    3d(10.00)    -5.039   1.058
    *s          22.603   1.164
    *p          26.513   1.164
    *d          22.172   1.058

  Using partial waves for Cu as LCAO basis

Reference energy: -135064.355523

Spin-paired calculation

Occupation numbers:
  Fermi-Dirac: width=0.1000 eV

Convergence criteria:
  Maximum total energy change: 0.0005 eV / electron
  Maximum integral of absolute density change: 0.0001 electrons
  Maximum integral of absolute eigenstate change: 4e-08 eV^2
  Maximum number of iterations: 333

Symmetries present (total): 6

  ( 1  0  0)  ( 1 -1  0)  ( 0  1  0)  ( 0 -1  0)  (-1  1  0)  (-1  0  0)
  ( 0  1  0)  ( 0 -1  0)  ( 1  0  0)  ( 1 -1  0)  (-1  0  0)  (-1  1  0)
  ( 0  0  1)  ( 0  0  1)  ( 0  0  1)  ( 0  0  1)  ( 0  0  1)  ( 0  0  1)
Note: your k-points are not as symmetric as your crystal!

16 k-points: 4 x 4 x 1 Monkhorst-Pack grid
6 k-points in the irreducible part of the Brillouin zone
       k-points in crystal coordinates                weights
   0:     0.12500000   -0.12500000    0.00000000          2/16
   1:     0.12500000    0.12500000    0.00000000          2/16
   2:     0.37500000   -0.37500000    0.00000000          2/16
   3:     0.37500000   -0.12500000    0.00000000          4/16
   4:     0.37500000    0.12500000    0.00000000          4/16
   5:     0.37500000    0.37500000    0.00000000          2/16

Wave functions: Plane wave expansion
  Cutoff energy: 850.000 eV
  Number of coefficients (min, max): 3811, 3874
  Pulay-stress correction: 0.000000 eV/Ang^3 (de/decut=0.000000)
  Using FFTW library
  ScaLapack parameters: grid=1x1, blocksize=None
  Wavefunction extrapolation:
    Improved wavefunction reuse through dual PAW basis 

Eigensolver
   Davidson(niter=2, smin=None, normalize=True) 

Densities:
  Coarse grid: 18*18*84 grid
  Fine grid: 36*36*168 grid
  Total Charge: 0.000000 

Density mixing:
  Method: separate
  Backend: pulay
  Linear mixing parameter: 0.05
  Mixing with 5 old densities
  Damping of long wave oscillations: 50 

Hamiltonian:
  XC and Coulomb potentials evaluated on a 36*36*168 grid
  Using the PBE Exchange-Correlation functional
 

XC parameters: PBE with 2 nearest neighbor stencil

Memory estimate:
  Process memory now: 101.63 MiB
  Calculator: 23.79 MiB
    Density: 11.53 MiB
      Arrays: 5.40 MiB
      Localized functions: 4.05 MiB
      Mixer: 2.08 MiB
    Hamiltonian: 3.61 MiB
      Arrays: 3.53 MiB
      XC: 0.00 MiB
      Poisson: 0.00 MiB
      vbar: 0.08 MiB
    Wavefunctions: 8.65 MiB
      Arrays psit_nG: 4.26 MiB
      Eigensolver: 1.80 MiB
      Projections: 0.06 MiB
      Projectors: 1.32 MiB
      PW-descriptor: 1.22 MiB

Total number of cores used: 2
Parallelization over k-points: 2

Number of atoms: 3
Number of atomic orbitals: 27
Number of bands in calculation: 24
Bands to converge: occupied states only
Number of valence electrons: 33

... initialized

Initializing position-dependent things.

Density initialized from atomic densities
Creating initial wave functions:
  24 bands from LCAO basis set

                    
                    
                    
                    
       Cu           
                    
        Cu          
                    
                    
           Cu       
                    
                    
                    
                    

Positions:
   0 Cu     1.271732    0.734235    4.000000    ( 0.0000,  0.0000,  0.0000)
   1 Cu     0.000000    1.468469    6.076729    ( 0.0000,  0.0000,  0.0000)
   2 Cu     0.000000    0.000000    8.153458    ( 0.0000,  0.0000,  0.0000)

Unit cell:
           periodic     x           y           z      points  spacing
  1. axis:    yes    2.543463    0.000000    0.000000    18     0.1224
  2. axis:    yes    1.271732    2.202704    0.000000    18     0.1224
  3. axis:    no     0.000000    0.000000   12.153458    84     0.1447

  Lengths:   2.543463   2.543463  12.153458
  Angles:   90.000000  90.000000  60.000000

Effective grid spacing dv^(1/3) = 0.1358

                     log10-error:    total        iterations:
           time      wfs    density  energy       fermi  poisson
iter:   1  16:03:21  +1.53   +inf   -12.821396    3             
iter:   2  16:03:22  -1.68  -1.20   -11.832311    32            
iter:   3  16:03:22  -0.71  -1.29   -10.447637    32            
iter:   4  16:03:23  -2.78  -1.74   -10.369281    30            
iter:   5  16:03:24  -2.02  -1.80   -10.338794    32            
iter:   6  16:03:24  -1.71  -2.01   -10.539971    32            
iter:   7  16:03:25  -1.81  -1.79   -10.320313    29            
iter:   8  16:03:26  -3.36  -2.72   -10.305380    3             
iter:   9  16:03:27  -3.38  -2.79   -10.300348    2             
iter:  10  16:03:28  -3.90  -2.86   -10.300688    3             
iter:  11  16:03:28  -4.13  -2.91   -10.300481    3             
iter:  12  16:03:29  -4.90  -3.51   -10.299951    2             
iter:  13  16:03:30  -4.98  -3.71   -10.299865    3             
iter:  14  16:03:30  -6.18  -3.81   -10.299861    3             
iter:  15  16:03:31  -6.17  -3.79   -10.299873    2             
iter:  16  16:03:32  -6.98  -3.86   -10.299873    2             
iter:  17  16:03:33  -6.63  -3.90   -10.299862    2             
iter:  18  16:03:33  -6.07  -3.97   -10.299859    3             
iter:  19  16:03:34  -8.06  -4.27   -10.299858    2             

Converged after 19 iterations.

Dipole moment: (-0.027840, -0.016073, 0.000000) |e|*Ang

Energy contributions relative to reference atoms: (reference = -135064.355523)

Kinetic:        -37.848711
Potential:      +29.285278
External:        +0.000000
XC:              -1.952772
Entropy (-ST):   -0.048207
Local:           +0.240451
--------------------------
Free energy:    -10.323962
Extrapolated:   -10.299858

Fermi level: 1.89003

Showing only first 2 kpts
 Kpt  Band  Eigenvalues  Occupancy
  0    14      0.01534    0.25000
  0    15      0.30696    0.25000
  0    16      0.31719    0.25000
  0    17      1.94516    0.09139

  1    14      0.05209    0.25000
  1    15      0.14948    0.25000
  1    16      0.37483    0.25000
  1    17      1.14020    0.24986


No gap

Forces in eV/Ang:
  0 Cu   -0.00000   -0.00000   -0.11457
  1 Cu   -0.00000    0.00000   -0.00000
  2 Cu    0.00000   -0.00000    0.11457

System changes: positions 

Initializing position-dependent things.

Density initialized from wave functions
                    
                    
                    
                    
       Cu           
                    
        Cu          
                    
                    
           Cu       
                    
                    
                    
                    

Positions:
   0 Cu     1.271732    0.734235    4.000000    ( 0.0000,  0.0000,  0.0000)
   1 Cu    -0.000000    1.468469    6.076729    ( 0.0000,  0.0000,  0.0000)
   2 Cu     0.000000   -0.000000    8.155095    ( 0.0000,  0.0000,  0.0000)

Unit cell:
           periodic     x           y           z      points  spacing
  1. axis:    yes    2.543463    0.000000    0.000000    18     0.1224
  2. axis:    yes    1.271732    2.202704    0.000000    18     0.1224
  3. axis:    no     0.000000    0.000000   12.153458    84     0.1447

  Lengths:   2.543463   2.543463  12.153458
  Angles:   90.000000  90.000000  60.000000

Effective grid spacing dv^(1/3) = 0.1358

                     log10-error:    total        iterations:
           time      wfs    density  energy       fermi  poisson
iter:   1  16:03:35  -4.70   +inf   -10.300132    3             
iter:   2  16:03:36  -5.93  -3.43   -10.300065    3             
iter:   3  16:03:36  -5.52  -3.61   -10.300054    3             
iter:   4  16:03:37  -6.34  -4.09   -10.300045    2             
iter:   5  16:03:38  -6.60  -4.28   -10.300046    2             
iter:   6  16:03:38  -7.57  -4.51   -10.300045    2             

Converged after 6 iterations.

Dipole moment: (-0.027714, -0.016001, -0.000315) |e|*Ang

Energy contributions relative to reference atoms: (reference = -135064.355523)

Kinetic:        -38.191910
Potential:      +29.600441
External:        +0.000000
XC:              -1.932200
Entropy (-ST):   -0.048196
Local:           +0.247722
--------------------------
Free energy:    -10.324143
Extrapolated:   -10.300045

Fermi level: 1.88880

Showing only first 2 kpts
 Kpt  Band  Eigenvalues  Occupancy
  0    14      0.01409    0.25000
  0    15      0.30537    0.25000
  0    16      0.31566    0.25000
  0    17      1.94305    0.09190

  1    14      0.05051    0.25000
  1    15      0.14884    0.25000
  1    16      0.37327    0.25000
  1    17      1.13870    0.24986


No gap

Forces in eV/Ang:
  0 Cu   -0.00000    0.00000   -0.11362
  1 Cu    0.00000    0.00000    0.00582
  2 Cu    0.00000    0.00000    0.10177

System changes: positions 

Initializing position-dependent things.

Density initialized from wave functions
                    
                    
                    
                    
       Cu           
                    
        Cu          
                    
                    
           Cu       
                    
                    
                    
                    

Positions:
   0 Cu     1.271732    0.734235    4.000000    ( 0.0000,  0.0000,  0.0000)
   1 Cu    -0.000000    1.468469    6.077472    ( 0.0000,  0.0000,  0.0000)
   2 Cu     0.000000   -0.000000    8.168442    ( 0.0000,  0.0000,  0.0000)

Unit cell:
           periodic     x           y           z      points  spacing
  1. axis:    yes    2.543463    0.000000    0.000000    18     0.1224
  2. axis:    yes    1.271732    2.202704    0.000000    18     0.1224
  3. axis:    no     0.000000    0.000000   12.153458    84     0.1447

  Lengths:   2.543463   2.543463  12.153458
  Angles:   90.000000  90.000000  60.000000

Effective grid spacing dv^(1/3) = 0.1358

                     log10-error:    total        iterations:
           time      wfs    density  energy       fermi  poisson
iter:   1  16:03:39  -2.94   +inf   -10.310496    3             
iter:   2  16:03:40  -4.06  -2.49   -10.304185    4             
iter:   3  16:03:41  -3.73  -2.68   -10.301776    4             
iter:   4  16:03:41  -4.91  -3.19   -10.301402    2             
iter:   5  16:03:42  -4.45  -3.29   -10.301334    3             
iter:   6  16:03:43  -6.07  -3.61   -10.301304    3             
iter:   7  16:03:44  -5.26  -3.77   -10.301252    2             
iter:   8  16:03:44  -6.00  -3.85   -10.301273    2             
iter:   9  16:03:45  -6.35  -3.94   -10.301272    3             
iter:  10  16:03:46  -6.38  -4.25   -10.301259    2             
iter:  11  16:03:46  -6.72  -4.40   -10.301255    2             
iter:  12  16:03:47  -7.55  -4.58   -10.301254    2             

Converged after 12 iterations.

Dipole moment: (-0.027411, -0.015826, -0.000461) |e|*Ang

Energy contributions relative to reference atoms: (reference = -135064.355523)

Kinetic:        -38.390677
Potential:      +29.753819
External:        +0.000000
XC:              -1.887841
Entropy (-ST):   -0.048053
Local:           +0.247471
--------------------------
Free energy:    -10.325280
Extrapolated:   -10.301254

Fermi level: 1.88692

Showing only first 2 kpts
 Kpt  Band  Eigenvalues  Occupancy
  0    14      0.01344    0.25000
  0    15      0.30274    0.25000
  0    16      0.31351    0.25000
  0    17      1.93303    0.09668

  1    14      0.04888    0.25000
  1    15      0.15158    0.25000
  1    16      0.37090    0.25000
  1    17      1.13367    0.24987


No gap

Forces in eV/Ang:
  0 Cu    0.00000    0.00000   -0.11679
  1 Cu   -0.00000    0.00000    0.05503
  2 Cu   -0.00000    0.00000    0.06012

System changes: positions 

Initializing position-dependent things.

Density initialized from wave functions
                    
                    
                    
                    
       Cu           
                    
        Cu          
                    
                    
           Cu       
                    
                    
                    
                    

Positions:
   0 Cu     1.271732    0.734235    4.000000    ( 0.0000,  0.0000,  0.0000)
   1 Cu    -0.000000    1.468469    6.080698    ( 0.0000,  0.0000,  0.0000)
   2 Cu    -0.000000   -0.000000    8.192503    ( 0.0000,  0.0000,  0.0000)

Unit cell:
           periodic     x           y           z      points  spacing
  1. axis:    yes    2.543463    0.000000    0.000000    18     0.1224
  2. axis:    yes    1.271732    2.202704    0.000000    18     0.1224
  3. axis:    no     0.000000    0.000000   12.153458    84     0.1447

  Lengths:   2.543463   2.543463  12.153458
  Angles:   90.000000  90.000000  60.000000

Effective grid spacing dv^(1/3) = 0.1358

                     log10-error:    total        iterations:
           time      wfs    density  energy       fermi  poisson
iter:   1  16:03:48  -2.41   +inf   -10.338464    5             
iter:   2  16:03:49  -3.43  -2.22   -10.312790    4             
iter:   3  16:03:49  -3.22  -2.42   -10.303883    4             
iter:   4  16:03:50  -4.41  -2.94   -10.302941    3             
iter:   5  16:03:51  -3.90  -3.02   -10.302476    3             
iter:   6  16:03:52  -5.24  -3.34   -10.302468    3             
iter:   7  16:03:53  -4.91  -3.49   -10.302256    3             
iter:   8  16:03:53  -5.08  -3.62   -10.302348    3             
iter:   9  16:03:54  -6.11  -3.73   -10.302359    3             
iter:  10  16:03:55  -5.45  -3.83   -10.302276    3             
iter:  11  16:03:56  -6.31  -4.14   -10.302268    2             
iter:  12  16:03:56  -6.81  -4.29   -10.302263    2             
iter:  13  16:03:57  -7.45  -4.42   -10.302263    2             

Converged after 13 iterations.

Dipole moment: (-0.026898, -0.015530, -0.001025) |e|*Ang

Energy contributions relative to reference atoms: (reference = -135064.355523)

Kinetic:        -38.703633
Potential:      +29.990608
External:        +0.000000
XC:              -1.811659
Entropy (-ST):   -0.047648
Local:           +0.246245
--------------------------
Free energy:    -10.326086
Extrapolated:   -10.302263

Fermi level: 1.88273

Showing only first 2 kpts
 Kpt  Band  Eigenvalues  Occupancy
  0    14      0.01300    0.25000
  0    15      0.29795    0.25000
  0    16      0.30923    0.25000
  0    17      1.91456    0.10528

  1    14      0.04508    0.25000
  1    15      0.15696    0.25000
  1    16      0.36665    0.25000
  1    17      1.12431    0.24987


No gap

Forces in eV/Ang:
  0 Cu    0.00000    0.00000   -0.10798
  1 Cu   -0.00000    0.00000    0.11900
  2 Cu   -0.00000    0.00000   -0.01438

System changes: positions 

Initializing position-dependent things.

Density initialized from wave functions
                    
                    
                    
                    
       Cu           
                    
        Cu          
                    
                    
           Cu       
                    
                    
                    
                    

Positions:
   0 Cu     1.271732    0.734235    4.000000    ( 0.0000,  0.0000,  0.0000)
   1 Cu    -0.000000    1.468469    6.082606    ( 0.0000,  0.0000,  0.0000)
   2 Cu    -0.000000   -0.000000    8.194649    ( 0.0000,  0.0000,  0.0000)

Unit cell:
           periodic     x           y           z      points  spacing
  1. axis:    yes    2.543463    0.000000    0.000000    18     0.1224
  2. axis:    yes    1.271732    2.202704    0.000000    18     0.1224
  3. axis:    no     0.000000    0.000000   12.153458    84     0.1447

  Lengths:   2.543463   2.543463  12.153458
  Angles:   90.000000  90.000000  60.000000

Effective grid spacing dv^(1/3) = 0.1358

                     log10-error:    total        iterations:
           time      wfs    density  energy       fermi  poisson
iter:   1  16:03:58  -4.15   +inf   -10.303830    3             
iter:   2  16:03:59  -4.85  -2.99   -10.302576    3             
iter:   3  16:03:59  -5.13  -3.33   -10.302475    3             
iter:   4  16:04:00  -5.86  -3.77   -10.302477    3             
iter:   5  16:04:01  -6.24  -4.08   -10.302470    2             
iter:   6  16:04:01  -7.15  -4.39   -10.302469    2             
iter:   7  16:04:02  -6.64  -4.42   -10.302471    2             
iter:   8  16:04:03  -8.08  -4.71   -10.302471    2             

Converged after 8 iterations.

Dipole moment: (-0.026937, -0.015552, -0.001029) |e|*Ang

Energy contributions relative to reference atoms: (reference = -135064.355523)

Kinetic:        -38.772198
Potential:      +30.047526
External:        +0.000000
XC:              -1.800398
Entropy (-ST):   -0.047596
Local:           +0.246398
--------------------------
Free energy:    -10.326269
Extrapolated:   -10.302471

Fermi level: 1.88187

Showing only first 2 kpts
 Kpt  Band  Eigenvalues  Occupancy
  0    14      0.01175    0.25000
  0    15      0.29661    0.25000
  0    16      0.30812    0.25000
  0    17      1.91228    0.10614

  1    14      0.04446    0.25000
  1    15      0.15588    0.25000
  1    16      0.36529    0.25000
  1    17      1.12272    0.24987


No gap

Forces in eV/Ang:
  0 Cu    0.00000    0.00000   -0.09423
  1 Cu    0.00000   -0.00000    0.10812
  2 Cu    0.00000    0.00000   -0.01536

System changes: positions 

Initializing position-dependent things.

Density initialized from wave functions
                    
                    
                    
                    
       Cu           
                    
        Cu          
                    
                    
           Cu       
                    
                    
                    
                    

Positions:
   0 Cu     1.271732    0.734235    4.000000    ( 0.0000,  0.0000,  0.0000)
   1 Cu    -0.000000    1.468469    6.097560    ( 0.0000,  0.0000,  0.0000)
   2 Cu     0.000000   -0.000000    8.205445    ( 0.0000,  0.0000,  0.0000)

Unit cell:
           periodic     x           y           z      points  spacing
  1. axis:    yes    2.543463    0.000000    0.000000    18     0.1224
  2. axis:    yes    1.271732    2.202704    0.000000    18     0.1224
  3. axis:    no     0.000000    0.000000   12.153458    84     0.1447

  Lengths:   2.543463   2.543463  12.153458
  Angles:   90.000000  90.000000  60.000000

Effective grid spacing dv^(1/3) = 0.1358

                     log10-error:    total        iterations:
           time      wfs    density  energy       fermi  poisson
iter:   1  16:04:04  -2.43   +inf   -10.387521    3             
iter:   2  16:04:04  -3.12  -2.11   -10.311620    4             
iter:   3  16:04:05  -3.43  -2.50   -10.304642    3             
iter:   4  16:04:06  -4.40  -2.95   -10.303938    3             
iter:   5  16:04:06  -4.73  -3.21   -10.303680    3             
iter:   6  16:04:07  -4.89  -3.42   -10.303666    2             
iter:   7  16:04:08  -5.66  -3.63   -10.303639    2             
iter:   8  16:04:09  -5.19  -3.69   -10.303624    2             
iter:   9  16:04:09  -6.71  -3.94   -10.303611    2             
iter:  10  16:04:10  -6.02  -4.01   -10.303616    3             
iter:  11  16:04:11  -6.48  -4.27   -10.303619    2             
iter:  12  16:04:11  -7.33  -4.44   -10.303616    2             
iter:  13  16:04:12  -7.82  -4.56   -10.303615    2             

Converged after 13 iterations.

Dipole moment: (-0.026983, -0.015579, -0.000227) |e|*Ang

Energy contributions relative to reference atoms: (reference = -135064.355523)

Kinetic:        -38.886349
Potential:      +30.129205
External:        +0.000000
XC:              -1.768583
Entropy (-ST):   -0.047331
Local:           +0.245778
--------------------------
Free energy:    -10.327281
Extrapolated:   -10.303615

Fermi level: 1.88050

Showing only first 2 kpts
 Kpt  Band  Eigenvalues  Occupancy
  0    14      0.01043    0.25000
  0    15      0.29491    0.25000
  0    16      0.30674    0.25000
  0    17      1.90436    0.11016

  1    14      0.04352    0.25000
  1    15      0.15825    0.25000
  1    16      0.36375    0.25000
  1    17      1.11888    0.24988


No gap

Forces in eV/Ang:
  0 Cu    0.00000    0.00000   -0.03775
  1 Cu   -0.00000   -0.00000    0.03952
  2 Cu    0.00000    0.00000   -0.00072

System changes: positions 

Initializing position-dependent things.

Density initialized from wave functions
                    
                    
                    
                    
       Cu           
                    
        Cu          
                    
                    
           Cu       
                    
                    
                    
                    

Positions:
   0 Cu     1.271732    0.734235    4.000000    ( 0.0000,  0.0000,  0.0000)
   1 Cu    -0.000000    1.468469    6.108238    ( 0.0000,  0.0000,  0.0000)
   2 Cu     0.000000   -0.000000    8.215643    ( 0.0000,  0.0000,  0.0000)

Unit cell:
           periodic     x           y           z      points  spacing
  1. axis:    yes    2.543463    0.000000    0.000000    18     0.1224
  2. axis:    yes    1.271732    2.202704    0.000000    18     0.1224
  3. axis:    no     0.000000    0.000000   12.153458    84     0.1447

  Lengths:   2.543463   2.543463  12.153458
  Angles:   90.000000  90.000000  60.000000

Effective grid spacing dv^(1/3) = 0.1358

                     log10-error:    total        iterations:
           time      wfs    density  energy       fermi  poisson
iter:   1  16:04:13  -2.65   +inf   -10.349768    4             
iter:   2  16:04:14  -3.33  -2.25   -10.308690    4             
iter:   3  16:04:14  -3.58  -2.62   -10.304498    3             
iter:   4  16:04:15  -4.49  -3.07   -10.304136    3             
iter:   5  16:04:16  -5.03  -3.33   -10.303972    2             
iter:   6  16:04:17  -5.01  -3.52   -10.303996    2             
iter:   7  16:04:17  -5.50  -3.72   -10.303965    2             
iter:   8  16:04:18  -5.83  -3.89   -10.303955    2             
iter:   9  16:04:19  -7.08  -4.11   -10.303948    2             
iter:  10  16:04:19  -6.49  -4.19   -10.303955    3             
iter:  11  16:04:20  -7.79  -4.52   -10.303954    2             

Converged after 11 iterations.

Dipole moment: (-0.026918, -0.015541, 0.000105) |e|*Ang

Energy contributions relative to reference atoms: (reference = -135064.355523)

Kinetic:        -39.003039
Potential:      +30.215323
External:        +0.000000
XC:              -1.738005
Entropy (-ST):   -0.047053
Local:           +0.245294
--------------------------
Free energy:    -10.327481
Extrapolated:   -10.303954

Fermi level: 1.87881

Showing only first 2 kpts
 Kpt  Band  Eigenvalues  Occupancy
  0    14      0.00993    0.25000
  0    15      0.29319    0.25000
  0    16      0.30515    0.25000
  0    17      1.89673    0.11383

  1    14      0.04201    0.25000
  1    15      0.16087    0.25000
  1    16      0.36226    0.25000
  1    17      1.11516    0.24988


No gap

Forces in eV/Ang:
  0 Cu    0.00000    0.00000    0.00471
  1 Cu   -0.00000    0.00000   -0.00327
  2 Cu   -0.00000   -0.00000    0.00599

System changes: positions 

Initializing position-dependent things.

Density initialized from wave functions
                    
                    
                    
                    
       Cu           
                    
        Cu          
                    
                    
           Cu       
                    
                    
                    
                    

Positions:
   0 Cu     1.271732    0.734235    4.000000    ( 0.0000,  0.0000,  0.0000)
   1 Cu    -0.000000    1.468469    6.109262    ( 0.0000,  0.0000,  0.0000)
   2 Cu     0.000000   -0.000000    8.218272    ( 0.0000,  0.0000,  0.0000)

Unit cell:
           periodic     x           y           z      points  spacing
  1. axis:    yes    2.543463    0.000000    0.000000    18     0.1224
  2. axis:    yes    1.271732    2.202704    0.000000    18     0.1224
  3. axis:    no     0.000000    0.000000   12.153458    84     0.1447

  Lengths:   2.543463   2.543463  12.153458
  Angles:   90.000000  90.000000  60.000000

Effective grid spacing dv^(1/3) = 0.1358

                     log10-error:    total        iterations:
           time      wfs    density  energy       fermi  poisson
iter:   1  16:04:21  -4.23   +inf   -10.304519    3             
iter:   2  16:04:22  -5.05  -3.13   -10.304000    3             
iter:   3  16:04:22  -5.06  -3.36   -10.303982    3             
iter:   4  16:04:23  -6.00  -3.83   -10.303997    3             
iter:   5  16:04:24  -5.90  -4.05   -10.303992    2             
iter:   6  16:04:25  -7.31  -4.34   -10.303990    2             
iter:   7  16:04:25  -6.49  -4.39   -10.303986    2             
iter:   8  16:04:26  -7.92  -4.59   -10.303990    2             

Converged after 8 iterations.

Dipole moment: (-0.026914, -0.015539, 0.000257) |e|*Ang

Energy contributions relative to reference atoms: (reference = -135064.355523)

Kinetic:        -39.085431
Potential:      +30.284482
External:        +0.000000
XC:              -1.724853
Entropy (-ST):   -0.046979
Local:           +0.245302
--------------------------
Free energy:    -10.327479
Extrapolated:   -10.303990

Fermi level: 1.87769

Showing only first 2 kpts
 Kpt  Band  Eigenvalues  Occupancy
  0    14      0.00880    0.25000
  0    15      0.29169    0.25000
  0    16      0.30379    0.25000
  0    17      1.89415    0.11474

  1    14      0.04087    0.25000
  1    15      0.16030    0.25000
  1    16      0.36080    0.25000
  1    17      1.11351    0.24988


No gap

Forces in eV/Ang:
  0 Cu    0.00000    0.00000    0.00102
  1 Cu   -0.00000   -0.00000    0.00045
  2 Cu   -0.00000    0.00000   -0.00794

System changes: positions 

Initializing position-dependent things.

Density initialized from wave functions
                    
                    
                    
                    
       Cu           
                    
        Cu          
                    
                    
           Cu       
                    
                    
                    
                    

Positions:
   0 Cu     1.271732    0.734235    4.000000    ( 0.0000,  0.0000,  0.0000)
   1 Cu    -0.000000    1.468469    6.108344    ( 0.0000,  0.0000,  0.0000)
   2 Cu     0.000000   -0.000000    8.216561    ( 0.0000,  0.0000,  0.0000)

Unit cell:
           periodic     x           y           z      points  spacing
  1. axis:    yes    2.543463    0.000000    0.000000    18     0.1224
  2. axis:    yes    1.271732    2.202704    0.000000    18     0.1224
  3. axis:    no     0.000000    0.000000   12.153458    84     0.1447

  Lengths:   2.543463   2.543463  12.153458
  Angles:   90.000000  90.000000  60.000000

Effective grid spacing dv^(1/3) = 0.1358

                     log10-error:    total        iterations:
           time      wfs    density  energy       fermi  poisson
iter:   1  16:04:27  -4.53   +inf   -10.304536    3             
iter:   2  16:04:28  -5.32  -3.27   -10.304134    3             
iter:   3  16:04:28  -5.50  -3.54   -10.304004    3             
iter:   4  16:04:29  -6.24  -3.96   -10.303970    3             
iter:   5  16:04:30  -6.33  -4.25   -10.303967    2             
iter:   6  16:04:30  -7.45  -4.49   -10.303971    2             

Converged after 6 iterations.

Dipole moment: (-0.026964, -0.015567, 0.000523) |e|*Ang

Energy contributions relative to reference atoms: (reference = -135064.355523)

Kinetic:        -39.059655
Potential:      +30.265260
External:        +0.000000
XC:              -1.732193
Entropy (-ST):   -0.047024
Local:           +0.246128
--------------------------
Free energy:    -10.327483
Extrapolated:   -10.303971

Fermi level: 1.87877

Showing only first 2 kpts
 Kpt  Band  Eigenvalues  Occupancy
  0    14      0.00957    0.25000
  0    15      0.29289    0.25000
  0    16      0.30510    0.25000
  0    17      1.89611    0.11419

  1    14      0.04252    0.25000
  1    15      0.16019    0.25000
  1    16      0.36193    0.25000
  1    17      1.11477    0.24988


No gap

Forces in eV/Ang:
  0 Cu   -0.00000    0.00000   -0.00013
  1 Cu    0.00000   -0.00000    0.00422
  2 Cu    0.00000    0.00000    0.01067

System changes: positions 

Initializing position-dependent things.

Density initialized from wave functions
                    
                    
                    
                    
       Cu           
                    
        Cu          
                    
                    
           Cu       
                    
                    
                    
                    

Positions:
   0 Cu     1.271732    0.734235    4.000000    ( 0.0000,  0.0000,  0.0000)
   1 Cu    -0.000000    1.468469    6.109133    ( 0.0000,  0.0000,  0.0000)
   2 Cu     0.000000   -0.000000    8.217590    ( 0.0000,  0.0000,  0.0000)

Unit cell:
           periodic     x           y           z      points  spacing
  1. axis:    yes    2.543463    0.000000    0.000000    18     0.1224
  2. axis:    yes    1.271732    2.202704    0.000000    18     0.1224
  3. axis:    no     0.000000    0.000000   12.153458    84     0.1447

  Lengths:   2.543463   2.543463  12.153458
  Angles:   90.000000  90.000000  60.000000

Effective grid spacing dv^(1/3) = 0.1358

                     log10-error:    total        iterations:
           time      wfs    density  energy       fermi  poisson
iter:   1  16:04:31  -4.48   +inf   -10.304376    3             
iter:   2  16:04:32  -5.27  -3.31   -10.303983    3             
iter:   3  16:04:33  -5.37  -3.70   -10.303968    3             
iter:   4  16:04:34  -6.46  -4.26   -10.303980    2             
iter:   5  16:04:34  -7.21  -4.41   -10.303979    2             
iter:   6  16:04:35  -7.83  -4.72   -10.303979    2             

Converged after 6 iterations.

Dipole moment: (-0.026903, -0.015533, 0.000291) |e|*Ang

Energy contributions relative to reference atoms: (reference = -135064.355523)

Kinetic:        -39.064166
Potential:      +30.266561
External:        +0.000000
XC:              -1.728238
Entropy (-ST):   -0.047004
Local:           +0.245367
--------------------------
Free energy:    -10.327481
Extrapolated:   -10.303979

Fermi level: 1.87790

Showing only first 2 kpts
 Kpt  Band  Eigenvalues  Occupancy
  0    14      0.00923    0.25000
  0    15      0.29207    0.25000
  0    16      0.30405    0.25000
  0    17      1.89485    0.11444

  1    14      0.04073    0.25000
  1    15      0.16094    0.25000
  1    16      0.36122    0.25000
  1    17      1.11403    0.24988


No gap

Forces in eV/Ang:
  0 Cu   -0.00000    0.00000    0.00212
  1 Cu    0.00000    0.00000   -0.00616
  2 Cu    0.00000    0.00000   -0.00598

System changes: positions 

Initializing position-dependent things.

Density initialized from wave functions
                    
                    
                    
                    
       Cu           
                    
        Cu          
                    
                    
           Cu       
                    
                    
                    
                    

Positions:
   0 Cu     1.271732    0.734235    4.000000    ( 0.0000,  0.0000,  0.0000)
   1 Cu    -0.000000    1.468469    6.108630    ( 0.0000,  0.0000,  0.0000)
   2 Cu     0.000000   -0.000000    8.217242    ( 0.0000,  0.0000,  0.0000)

Unit cell:
           periodic     x           y           z      points  spacing
  1. axis:    yes    2.543463    0.000000    0.000000    18     0.1224
  2. axis:    yes    1.271732    2.202704    0.000000    18     0.1224
  3. axis:    no     0.000000    0.000000   12.153458    84     0.1447

  Lengths:   2.543463   2.543463  12.153458
  Angles:   90.000000  90.000000  60.000000

Effective grid spacing dv^(1/3) = 0.1358

                     log10-error:    total        iterations:
           time      wfs    density  energy       fermi  poisson
iter:   1  16:04:36  -5.05   +inf   -10.304238    3             
iter:   2  16:04:37  -5.74  -3.55   -10.304035    2             
iter:   3  16:04:37  -5.97  -4.01   -10.303988    2             
iter:   4  16:04:38  -7.14  -4.48   -10.303978    2             
iter:   5  16:04:39  -7.66  -4.69   -10.303977    2             

Converged after 5 iterations.

Dipole moment: (-0.026911, -0.015537, 0.000355) |e|*Ang

Energy contributions relative to reference atoms: (reference = -135064.355523)

Kinetic:        -39.056935
Potential:      +30.261185
External:        +0.000000
XC:              -1.730477
Entropy (-ST):   -0.047008
Local:           +0.245753
--------------------------
Free energy:    -10.327481
Extrapolated:   -10.303977

Fermi level: 1.87846

Showing only first 2 kpts
 Kpt  Band  Eigenvalues  Occupancy
  0    14      0.00963    0.25000
  0    15      0.29269    0.25000
  0    16      0.30473    0.25000
  0    17      1.89549    0.11438

  1    14      0.04170    0.25000
  1    15      0.16096    0.25000
  1    16      0.36179    0.25000
  1    17      1.11450    0.24988


No gap

Forces in eV/Ang:
  0 Cu   -0.00000    0.00000    0.00188
  1 Cu    0.00000   -0.00000    0.00294
  2 Cu    0.00000    0.00000    0.00223

Timing:                                      incl.     excl.
-------------------------------------------------------------------
Density initialized from wave functions:     0.605     0.499   0.6% |
 Symmetrize density:                         0.106     0.106   0.1% |
Forces:                                      1.285     1.285   1.6% ||
Hamiltonian:                                 2.998     0.010   0.0% |
 Atomic:                                     1.471     0.732   0.9% |
  XC Correction:                             0.738     0.738   0.9% |
 Calculate atomic Hamiltonians:              0.093     0.093   0.1% |
 Communicate:                                0.000     0.000   0.0% |
 Initialize Hamiltonian:                     0.000     0.000   0.0% |
 Poisson:                                    0.012     0.012   0.0% |
 XC 3D grid:                                 1.413     1.413   1.7% ||
LCAO initialization:                         2.206     0.038   0.0% |
 LCAO eigensolver:                           0.781     0.000   0.0% |
  Calculate projections:                     0.000     0.000   0.0% |
  DenseAtomicCorrection:                     0.001     0.001   0.0% |
  Distribute overlap matrix:                 0.000     0.000   0.0% |
  Orbital Layouts:                           0.001     0.001   0.0% |
  Potential matrix:                          0.764     0.764   0.9% |
  Sum over cells:                            0.015     0.015   0.0% |
 LCAO to grid:                               1.203     1.203   1.5% ||
 Set positions (LCAO WFS):                   0.184     0.037   0.0% |
  Basic WFS set positions:                   0.001     0.001   0.0% |
  Basis functions set positions:             0.000     0.000   0.0% |
  P tci:                                     0.046     0.046   0.1% |
  ST tci:                                    0.059     0.059   0.1% |
  mktci:                                     0.041     0.041   0.0% |
PWDescriptor:                                0.009     0.009   0.0% |
Redistribute:                                0.010     0.010   0.0% |
SCF-cycle:                                  72.859     0.342   0.4% |
 Davidson:                                  39.638     6.967   8.5% |--|
  Apply H:                                   6.255     5.969   7.3% |--|
   HMM T:                                    0.286     0.286   0.3% |
  Subspace diag:                             7.814     0.043   0.1% |
   calc_h_matrix:                            6.731     0.533   0.6% |
    Apply H:                                 6.198     5.918   7.2% |--|
     HMM T:                                  0.280     0.280   0.3% |
   diagonalize:                              0.099     0.099   0.1% |
   rotate_psi:                               0.941     0.941   1.1% |
  calc. matrices:                           16.204     3.841   4.7% |-|
   Apply H:                                 12.363    11.812  14.4% |-----|
    HMM T:                                   0.551     0.551   0.7% |
  diagonalize:                               0.534     0.534   0.7% |
  rotate_psi:                                1.865     1.865   2.3% ||
 Density:                                    6.320     0.002   0.0% |
  Atomic density matrices:                   0.138     0.138   0.2% |
  Mix:                                       1.530     1.530   1.9% ||
  Multipole moments:                         0.019     0.019   0.0% |
  Pseudo density:                            4.630     3.584   4.4% |-|
   Symmetrize density:                       1.046     1.046   1.3% ||
 Hamiltonian:                               26.313     0.084   0.1% |
  Atomic:                                   12.948     6.387   7.8% |--|
   XC Correction:                            6.562     6.562   8.0% |--|
  Calculate atomic Hamiltonians:             0.831     0.831   1.0% |
  Communicate:                               0.002     0.002   0.0% |
  Poisson:                                   0.102     0.102   0.1% |
  XC 3D grid:                               12.347    12.347  15.1% |-----|
 Orthonormalize:                             0.245     0.004   0.0% |
  calc_s_matrix:                             0.043     0.043   0.1% |
  inverse-cholesky:                          0.018     0.018   0.0% |
  projections:                               0.127     0.127   0.2% |
  rotate_psi_s:                              0.052     0.052   0.1% |
Set symmetry:                                0.006     0.006   0.0% |
Other:                                       2.028     2.028   2.5% ||
-------------------------------------------------------------------
Total:                                                82.007 100.0%

Memory usage: 159.21 MiB
Date: Sun Dec 29 16:04:39 2019
